title                                                                   
Freq      RB3LYP                                                      6-311G(d,p)         
Number of atoms                            I                7
Info1-9                                    I   N=           9
          16          16           0           0           0         100
           6          18        -502
Full Title                                 C   N=           1
title       
Route                                      C   N=           6
#p B3LYP/6-311G(d,p) freq=noraman int(grid=ultrafine) maxdis
k=50GB      
Charge                                     I                0
Multiplicity                               I                1
Number of electrons                        I               70
Number of alpha electrons                  I               35
Number of beta electrons                   I               35
Number of basis functions                  I              134
Number of independent functions            I              134
Number of point charges in /Mol/           I                0
Number of translation vectors              I                0
Atomic numbers                             I   N=           7
          16           9           9           9           9           9
           9
Nuclear charges                            R   N=           7
  1.60000000E+01  9.00000000E+00  9.00000000E+00  9.00000000E+00  9.00000000E+00
  9.00000000E+00  9.00000000E+00
Current cartesian coordinates              R   N=          21
  0.00000000E+00  0.00000000E+00  0.00000000E+00  0.00000000E+00  0.00000000E+00
  3.02989994E+00  0.00000000E+00  3.02989994E+00 -5.56583590E-16  0.00000000E+00
 -3.71055726E-16 -3.02989994E+00  0.00000000E+00 -3.02989994E+00  1.85527863E-16
  3.02989994E+00  8.16371145E-34  1.85527863E-16 -3.02989994E+00  8.16371145E-34
 -5.56583590E-16
Number of symbols in /Mol/                 I                0
Force Field                                I                0
Atom Types                                 C   N=           7
                                                            
                        
Int Atom Types                             I   N=           7
           0           0           0           0           0           0
           0
MM charges                                 R   N=           7
  0.00000000E+00  0.00000000E+00  0.00000000E+00  0.00000000E+00  0.00000000E+00
  0.00000000E+00  0.00000000E+00
Integer atomic weights                     I   N=           7
          32          19          19          19          19          19
          19
Real atomic weights                        R   N=           7
  3.19720718E+01  1.89984032E+01  1.89984032E+01  1.89984032E+01  1.89984032E+01
  1.89984032E+01  1.89984032E+01
Atom fragment info                         I   N=           7
           0           0           0           0           0           0
           0
Atom residue num                           I   N=           7
           0           0           0           0           0           0
           0
Nuclear spins                              I   N=           7
           0           1           1           1           1           1
           1
Nuclear ZEff                               R   N=           7
 -1.36000000E+01 -6.75000000E+00 -6.75000000E+00 -6.75000000E+00 -6.75000000E+00
 -6.75000000E+00 -6.75000000E+00
Nuclear ZNuc                               R   N=           7
  1.60000000E+01  9.00000000E+00  9.00000000E+00  9.00000000E+00  9.00000000E+00
  9.00000000E+00  9.00000000E+00
Nuclear QMom                               R   N=           7
  0.00000000E+00  0.00000000E+00  0.00000000E+00  0.00000000E+00  0.00000000E+00
  0.00000000E+00  0.00000000E+00
Nuclear GFac                               R   N=           7
  0.00000000E+00  2.62886700E+00  2.62886700E+00  2.62886700E+00  2.62886700E+00
  2.62886700E+00  2.62886700E+00
MicOpt                                     I   N=           7
          -1          -1          -1          -1          -1          -1
          -1
Number of residues                         I                0
Number of secondary structures             I                0
SymInf integers                            I   N=          26
           8           8           1           1           1           1
          -1          -1          -1           1          -1          -1
          -1           1          -1          -1          -1          -1
           1           1           1          -1           1           1
           1          -1
RotTr to input orientation                 R   N=          12
  0.00000000E+00 -1.00000000E+00  0.00000000E+00  1.00000000E+00  0.00000000E+00
 -1.83697020E-16  1.83697020E-16  0.00000000E+00  1.00000000E+00  0.00000000E+00
  0.00000000E+00  0.00000000E+00
Number of contracted shells                I               42
Number of primitive shells                 I               95
Pure/Cartesian d shells                    I                0
Pure/Cartesian f shells                    I                0
Highest angular momentum                   I                2
Largest degree of contraction              I                6
Shell types                                I   N=          42
           0           0           0           0           0           0
           1           1           1           1           1          -2
           0          -1          -1          -1          -2           0
          -1          -1          -1          -2           0          -1
          -1          -1          -2           0          -1          -1
          -1          -2           0          -1          -1          -1
          -2           0          -1          -1          -1          -2
Number of primitives per shell             I   N=          42
           6           3           1           1           1           1
           4           2           1           1           1           1
           6           3           1           1           1           6
           3           1           1           1           6           3
           1           1           1           6           3           1
           1           1           6           3           1           1
           1           6           3           1           1           1
Shell to atom map                          I   N=          42
           1           1           1           1           1           1
           1           1           1           1           1           1
           2           2           2           2           2           3
           3           3           3           3           4           4
           4           4           4           5           5           5
           5           5           6           6           6           6
           6           7           7           7           7           7
Primitive exponents                        R   N=          95
  9.34134000E+04  1.39617000E+04  3.16991000E+03  9.02456000E+02  2.97158000E+02
  1.08702000E+02  1.08702000E+02  4.31553000E+01  1.81079000E+01  5.56009000E+00
  2.13183000E+00  4.20403000E-01  1.36045000E-01  4.95040000E+02  1.17221000E+02
  3.77749000E+01  1.40584000E+01  5.56574000E+00  2.26297000E+00  8.07994000E-01
  2.77460000E-01  7.71410000E-02  6.50000000E-01  1.14271000E+04  1.72235000E+03
  3.95746000E+02  1.15139000E+02  3.36026000E+01  4.91901000E+00  5.54441000E+01
  1.26323000E+01  3.71756000E+00  1.16545000E+00  3.21892000E-01  1.75000000E+00
  1.14271000E+04  1.72235000E+03  3.95746000E+02  1.15139000E+02  3.36026000E+01
  4.91901000E+00  5.54441000E+01  1.26323000E+01  3.71756000E+00  1.16545000E+00
  3.21892000E-01  1.75000000E+00  1.14271000E+04  1.72235000E+03  3.95746000E+02
  1.15139000E+02  3.36026000E+01  4.91901000E+00  5.54441000E+01  1.26323000E+01
  3.71756000E+00  1.16545000E+00  3.21892000E-01  1.75000000E+00  1.14271000E+04
  1.72235000E+03  3.95746000E+02  1.15139000E+02  3.36026000E+01  4.91901000E+00
  5.54441000E+01  1.26323000E+01  3.71756000E+00  1.16545000E+00  3.21892000E-01
  1.75000000E+00  1.14271000E+04  1.72235000E+03  3.95746000E+02  1.15139000E+02
  3.36026000E+01  4.91901000E+00  5.54441000E+01  1.26323000E+01  3.71756000E+00
  1.16545000E+00  3.21892000E-01  1.75000000E+00  1.14271000E+04  1.72235000E+03
  3.95746000E+02  1.15139000E+02  3.36026000E+01  4.91901000E+00  5.54441000E+01
  1.26323000E+01  3.71756000E+00  1.16545000E+00  3.21892000E-01  1.75000000E+00
Contraction coefficients                   R   N=          95
  7.42999957E-04  5.79299966E-03  2.99539983E-02  1.19027993E-01  3.68431979E-01
  5.77298966E-01  1.43186060E-01  6.24465262E-01  2.83366119E-01  1.00000000E+00
  1.00000000E+00  1.00000000E+00  1.00000000E+00  8.30900251E-03  6.40240194E-02
  2.77614084E-01  7.45076225E-01  6.13711672E-01  4.43817763E-01  1.00000000E+00
  1.00000000E+00  1.00000000E+00  1.00000000E+00  1.80093016E-03  1.37419012E-02
  6.81334059E-02  2.33325020E-01  5.89086051E-01  2.99505026E-01  1.14536016E-01
  9.20512125E-01 -3.37804046E-03  1.00000000E+00  1.00000000E+00  1.00000000E+00
  1.80093016E-03  1.37419012E-02  6.81334059E-02  2.33325020E-01  5.89086051E-01
  2.99505026E-01  1.14536016E-01  9.20512125E-01 -3.37804046E-03  1.00000000E+00
  1.00000000E+00  1.00000000E+00  1.80093016E-03  1.37419012E-02  6.81334059E-02
  2.33325020E-01  5.89086051E-01  2.99505026E-01  1.14536016E-01  9.20512125E-01
 -3.37804046E-03  1.00000000E+00  1.00000000E+00  1.00000000E+00  1.80093016E-03
  1.37419012E-02  6.81334059E-02  2.33325020E-01  5.89086051E-01  2.99505026E-01
  1.14536016E-01  9.20512125E-01 -3.37804046E-03  1.00000000E+00  1.00000000E+00
  1.00000000E+00  1.80093016E-03  1.37419012E-02  6.81334059E-02  2.33325020E-01
  5.89086051E-01  2.99505026E-01  1.14536016E-01  9.20512125E-01 -3.37804046E-03
  1.00000000E+00  1.00000000E+00  1.00000000E+00  1.80093016E-03  1.37419012E-02
  6.81334059E-02  2.33325020E-01  5.89086051E-01  2.99505026E-01  1.14536016E-01
  9.20512125E-01 -3.37804046E-03  1.00000000E+00  1.00000000E+00  1.00000000E+00
P(S=P) Contraction coefficients            R   N=          95
  0.00000000E+00  0.00000000E+00  0.00000000E+00  0.00000000E+00  0.00000000E+00
  0.00000000E+00  0.00000000E+00  0.00000000E+00  0.00000000E+00  0.00000000E+00
  0.00000000E+00  0.00000000E+00  0.00000000E+00  0.00000000E+00  0.00000000E+00
  0.00000000E+00  0.00000000E+00  0.00000000E+00  0.00000000E+00  0.00000000E+00
  0.00000000E+00  0.00000000E+00  0.00000000E+00  0.00000000E+00  0.00000000E+00
  0.00000000E+00  0.00000000E+00  0.00000000E+00  0.00000000E+00  3.54608874E-02
  2.37450915E-01  8.20457708E-01  1.00000000E+00  1.00000000E+00  0.00000000E+00
  0.00000000E+00  0.00000000E+00  0.00000000E+00  0.00000000E+00  0.00000000E+00
  0.00000000E+00  3.54608874E-02  2.37450915E-01  8.20457708E-01  1.00000000E+00
  1.00000000E+00  0.00000000E+00  0.00000000E+00  0.00000000E+00  0.00000000E+00
  0.00000000E+00  0.00000000E+00  0.00000000E+00  3.54608874E-02  2.37450915E-01
  8.20457708E-01  1.00000000E+00  1.00000000E+00  0.00000000E+00  0.00000000E+00
  0.00000000E+00  0.00000000E+00  0.00000000E+00  0.00000000E+00  0.00000000E+00
  3.54608874E-02  2.37450915E-01  8.20457708E-01  1.00000000E+00  1.00000000E+00
  0.00000000E+00  0.00000000E+00  0.00000000E+00  0.00000000E+00  0.00000000E+00
  0.00000000E+00  0.00000000E+00  3.54608874E-02  2.37450915E-01  8.20457708E-01
  1.00000000E+00  1.00000000E+00  0.00000000E+00  0.00000000E+00  0.00000000E+00
  0.00000000E+00  0.00000000E+00  0.00000000E+00  0.00000000E+00  3.54608874E-02
  2.37450915E-01  8.20457708E-01  1.00000000E+00  1.00000000E+00  0.00000000E+00
Coordinates of each shell                  R   N=         126
  0.00000000E+00  0.00000000E+00  0.00000000E+00  0.00000000E+00  0.00000000E+00
  0.00000000E+00  0.00000000E+00  0.00000000E+00  0.00000000E+00  0.00000000E+00
  0.00000000E+00  0.00000000E+00  0.00000000E+00  0.00000000E+00  0.00000000E+00
  0.00000000E+00  0.00000000E+00  0.00000000E+00  0.00000000E+00  0.00000000E+00
  0.00000000E+00  0.00000000E+00  0.00000000E+00  0.00000000E+00  0.00000000E+00
  0.00000000E+00  0.00000000E+00  0.00000000E+00  0.00000000E+00  0.00000000E+00
  0.00000000E+00  0.00000000E+00  0.00000000E+00  0.00000000E+00  0.00000000E+00
  0.00000000E+00  0.00000000E+00  8.16371145E-34  3.02989994E+00  0.00000000E+00
  8.16371145E-34  3.02989994E+00  0.00000000E+00  8.16371145E-34  3.02989994E+00
  0.00000000E+00  8.16371145E-34  3.02989994E+00  0.00000000E+00  8.16371145E-34
  3.02989994E+00  0.00000000E+00  3.02989994E+00 -5.56583590E-16  0.00000000E+00
  3.02989994E+00 -5.56583590E-16  0.00000000E+00  3.02989994E+00 -5.56583590E-16
  0.00000000E+00  3.02989994E+00 -5.56583590E-16  0.00000000E+00  3.02989994E+00
 -5.56583590E-16  0.00000000E+00 -3.71055726E-16 -3.02989994E+00  0.00000000E+00
 -3.71055726E-16 -3.02989994E+00  0.00000000E+00 -3.71055726E-16 -3.02989994E+00
  0.00000000E+00 -3.71055726E-16 -3.02989994E+00  0.00000000E+00 -3.71055726E-16
 -3.02989994E+00  0.00000000E+00 -3.02989994E+00  1.85527863E-16  0.00000000E+00
 -3.02989994E+00  1.85527863E-16  0.00000000E+00 -3.02989994E+00  1.85527863E-16
  0.00000000E+00 -3.02989994E+00  1.85527863E-16  0.00000000E+00 -3.02989994E+00
  1.85527863E-16  3.02989994E+00  8.16371145E-34  1.85527863E-16  3.02989994E+00
  8.16371145E-34  1.85527863E-16  3.02989994E+00  8.16371145E-34  1.85527863E-16
  3.02989994E+00  8.16371145E-34  1.85527863E-16  3.02989994E+00  8.16371145E-34
  1.85527863E-16 -3.02989994E+00  8.16371145E-34 -5.56583590E-16 -3.02989994E+00
  8.16371145E-34 -5.56583590E-16 -3.02989994E+00  8.16371145E-34 -5.56583590E-16
 -3.02989994E+00  8.16371145E-34 -5.56583590E-16 -3.02989994E+00  8.16371145E-34
 -5.56583590E-16
Num ILSW                                   I              100
ILSW                                       I   N=         100
           0           0           0           0           2           0
           0           0           0           0         402  6710886400
           5           0           0           0           2           0
           0           0           0           0           1           0
           1           0           0           0           0           0
           0           0      100000           0          -1           0
           0           0           0           0           0           0
           0           0           0           1           0           0
           0 -2000000000           1           0           0           0
           0           0           4          52           0           0
           0           0           5           0           0           0
           0           0           0           7           0           1
           0           0           0           0           0           0
           0           0           0           0           0           0
           0           0           0           0           0           0
           0           0           0           0           0           0
           0           0           0           0
Num RLSW                                   I               52
RLSW                                       R   N=          52
  8.00000000E-01  7.20000000E-01  1.00000000E+00  8.10000000E-01  2.00000000E-01
  0.00000000E+00  0.00000000E+00  1.00000000E+00  0.00000000E+00  0.00000000E+00
  0.00000000E+00  0.00000000E+00  1.00000000E+00  0.00000000E+00  0.00000000E+00
  0.00000000E+00  0.00000000E+00  1.00000000E+00  0.00000000E+00  0.00000000E+00
  0.00000000E+00  0.00000000E+00  1.00000000E+00  0.00000000E+00  0.00000000E+00
  0.00000000E+00  0.00000000E+00  1.00000000E+00  0.00000000E+00  0.00000000E+00
  0.00000000E+00  0.00000000E+00  1.00000000E+00  0.00000000E+00  0.00000000E+00
  0.00000000E+00  0.00000000E+00  0.00000000E+00  1.00000000E+00  1.00000000E+00
  0.00000000E+00  1.00000000E+00  0.00000000E+00  0.00000000E+00  0.00000000E+00
  0.00000000E+00  0.00000000E+00  0.00000000E+00  0.00000000E+00  0.00000000E+00
  0.00000000E+00  0.00000000E+00
MxBond                                     I                6
NBond                                      I   N=           7
           6           1           1           1           1           1
           1
IBond                                      I   N=          42
           2           3           4           5           6           7
           1           0           0           0           0           0
           1           0           0           0           0           0
           1           0           0           0           0           0
           1           0           0           0           0           0
           1           0           0           0           0           0
           1           0           0           0           0           0
RBond                                      R   N=          42
  1.00000000E+00  1.00000000E+00  1.00000000E+00  1.00000000E+00  1.00000000E+00
  1.00000000E+00  1.00000000E+00  0.00000000E+00  0.00000000E+00  0.00000000E+00
  0.00000000E+00  0.00000000E+00  1.00000000E+00  0.00000000E+00  0.00000000E+00
  0.00000000E+00  0.00000000E+00  0.00000000E+00  1.00000000E+00  0.00000000E+00
  0.00000000E+00  0.00000000E+00  0.00000000E+00  0.00000000E+00  1.00000000E+00
  0.00000000E+00  0.00000000E+00  0.00000000E+00  0.00000000E+00  0.00000000E+00
  1.00000000E+00  0.00000000E+00  0.00000000E+00  0.00000000E+00  0.00000000E+00
  0.00000000E+00  1.00000000E+00  0.00000000E+00  0.00000000E+00  0.00000000E+00
  0.00000000E+00  0.00000000E+00
Virial Ratio                               R      2.001603365359846E+00
SCF Energy                                 R     -9.972946752868177E+02
Total Energy                               R     -9.972946752868177E+02
RMS Force                                  R      4.751449101654777E-08
RMS Density                                R      5.260847394083093E-09
NImag                                      I                0
Job Status                                 I                1
Nuclear derivative order                   I                2
External E-field                           R   N=          35
  0.00000000E+00  0.00000000E+00  0.00000000E+00  0.00000000E+00  0.00000000E+00
  0.00000000E+00  0.00000000E+00  0.00000000E+00  0.00000000E+00  0.00000000E+00
  0.00000000E+00  0.00000000E+00  0.00000000E+00  0.00000000E+00  0.00000000E+00
  0.00000000E+00  0.00000000E+00  0.00000000E+00  0.00000000E+00  0.00000000E+00
  0.00000000E+00  0.00000000E+00  0.00000000E+00  0.00000000E+00  0.00000000E+00
  0.00000000E+00  0.00000000E+00  0.00000000E+00  0.00000000E+00  0.00000000E+00
  0.00000000E+00  0.00000000E+00  0.00000000E+00  0.00000000E+00  0.00000000E+00
IOpCl                                      I                0
IROHF                                      I                0
Alpha Orbital Energies                     R   N=         134
 -8.92975621E+01 -2.47575125E+01 -2.47574902E+01 -2.47574902E+01 -2.47574902E+01
 -2.47574818E+01 -2.47574818E+01 -8.33829777E+00 -6.30234194E+00 -6.30234194E+00
 -6.30234194E+00 -1.41920418E+00 -1.30061771E+00 -1.30061771E+00 -1.30061771E+00
 -1.25432082E+00 -1.25432082E+00 -8.46683184E-01 -6.86995080E-01 -6.86995080E-01
 -6.86995080E-01 -5.73156277E-01 -5.73156277E-01 -5.73156277E-01 -5.45428747E-01
 -5.45428747E-01 -4.92337770E-01 -4.92337770E-01 -4.92337770E-01 -4.89145392E-01
 -4.89145392E-01 -4.89145392E-01 -4.52850340E-01 -4.52850340E-01 -4.52850340E-01
 -1.22083145E-01  5.48241095E-02  5.48241095E-02  5.48241095E-02  1.70027307E-01
  1.70027307E-01  1.70027307E-01  3.41232092E-01  4.79168065E-01  4.79168065E-01
  4.79168065E-01  8.20690739E-01  8.20690739E-01  8.59218429E-01  8.59218429E-01
  8.59218429E-01  8.64469758E-01  8.64469758E-01  8.64469758E-01  9.13541510E-01
  9.72272425E-01  9.72272425E-01  9.72272425E-01  9.81804054E-01  9.81804054E-01
  1.19293288E+00  1.19293288E+00  1.19293288E+00  1.28734252E+00  1.28734252E+00
  1.28734252E+00  1.50458567E+00  1.50458567E+00  1.56678431E+00  1.56678431E+00
  1.56678431E+00  1.77425048E+00  1.77425048E+00  1.77425048E+00  2.27823831E+00
  3.65021699E+00  3.65021699E+00  3.65021699E+00  3.66270475E+00  3.66270475E+00
  3.66270475E+00  3.69794123E+00  3.69794862E+00  3.69794862E+00  3.69794862E+00
  3.69818539E+00  3.69818539E+00  3.69888778E+00  3.70666815E+00  3.70666815E+00
  3.70666815E+00  3.71173617E+00  3.71173617E+00  3.74042384E+00  3.74042384E+00
  3.74042384E+00  3.78863580E+00  3.78863580E+00  3.78863580E+00  3.79069562E+00
  4.18988010E+00  4.18988010E+00  4.18988010E+00  4.19035358E+00  4.19035358E+00
  5.88358551E+00  5.88358551E+00  5.88358551E+00  5.91138385E+00  5.94777272E+00
  5.94777272E+00  5.94777272E+00  6.00422732E+00  6.00422732E+00  6.00422732E+00
  6.12360497E+00  6.12360497E+00  6.12360497E+00  6.13178601E+00  6.13178601E+00
  6.26078529E+00  6.26078529E+00  6.26078529E+00  7.62611769E+00  1.71623717E+01
  1.71623717E+01  1.71623717E+01  6.65690184E+01  6.65690184E+01  6.66413659E+01
  6.66413659E+01  6.66413659E+01  6.68445146E+01  1.88503874E+02
Alpha MO coefficients                      R   N=       17956
  4.10923469E-01  6.54383475E-01  1.51987603E-02 -4.41070252E-03  1.39021682E-03
 -1.26731675E-04  0.00000000E+00  0.00000000E+00  0.00000000E+00  0.00000000E+00
  0.00000000E+00  0.00000000E+00  0.00000000E+00  0.00000000E+00  0.00000000E+00
  0.00000000E+00  0.00000000E+00  0.00000000E+00  0.00000000E+00  0.00000000E+00
  0.00000000E+00 -1.83359479E-16  0.00000000E+00  0.00000000E+00  3.74891220E-16
  0.00000000E+00  1.08791790E-06 -3.28896039E-06  0.00000000E+00  0.00000000E+00
 -1.22264666E-05  4.05036308E-05  0.00000000E+00  0.00000000E+00  1.10835929E-05
 -9.70614803E-05  0.00000000E+00  0.00000000E+00  1.14540998E-04 -4.54922202E-05
  0.00000000E+00  0.00000000E+00  2.78181514E-18  0.00000000E+00  1.08791790E-06
 -3.28896038E-06  0.00000000E+00 -1.22264666E-05  0.00000000E+00  4.05036308E-05
  0.00000000E+00  1.10835929E-05  0.00000000E+00 -9.70614803E-05  0.00000000E+00
  1.14540998E-04  0.00000000E+00  2.27461101E-05  0.00000000E+00  0.00000000E+00
  3.93974183E-05  0.00000000E+00  1.08791790E-06 -3.28896039E-06  0.00000000E+00
  0.00000000E+00  1.22264666E-05  4.05036308E-05  0.00000000E+00  0.00000000E+00
 -1.10835929E-05 -9.70614803E-05  0.00000000E+00  0.00000000E+00 -1.14540998E-04
 -4.54922202E-05  0.00000000E+00  0.00000000E+00  2.78181514E-18  0.00000000E+00
  1.08791790E-06 -3.28896038E-06  0.00000000E+00  1.22264666E-05  0.00000000E+00
  4.05036308E-05  0.00000000E+00 -1.10835929E-05  0.00000000E+00 -9.70614803E-05
  0.00000000E+00 -1.14540998E-04  0.00000000E+00  2.27461101E-05  0.00000000E+00
  0.00000000E+00  3.93974183E-05  0.00000000E+00  1.08791790E-06 -3.28896038E-06
 -1.22264666E-05  0.00000000E+00  0.00000000E+00  4.05036308E-05  1.10835929E-05
  0.00000000E+00  0.00000000E+00 -9.70614803E-05  1.14540998E-04  0.00000000E+00
  0.00000000E+00  2.27461101E-05  0.00000000E+00  0.00000000E+00 -3.93974183E-05
  0.00000000E+00  1.08791790E-06 -3.28896038E-06  1.22264666E-05  0.00000000E+00
  0.00000000E+00  4.05036308E-05 -1.10835929E-05  0.00000000E+00  0.00000000E+00
 -9.70614803E-05 -1.14540998E-04  0.00000000E+00  0.00000000E+00  2.27461101E-05
  0.00000000E+00  0.00000000E+00 -3.93974183E-05  0.00000000E+00  1.27054851E-06
 -9.36894698E-07  2.55934583E-05 -5.46931012E-05 -3.82061576E-03  1.55065314E-02
  0.00000000E+00  0.00000000E+00  0.00000000E+00  0.00000000E+00  0.00000000E+00
  0.00000000E+00  0.00000000E+00  0.00000000E+00  0.00000000E+00  0.00000000E+00
  0.00000000E+00  0.00000000E+00  0.00000000E+00  0.00000000E+00  0.00000000E+00
 -2.84475289E-13  0.00000000E+00  0.00000000E+00  1.96051370E-13  0.00000000E+00
  2.23576167E-01  1.92616859E-01  0.00000000E+00  0.00000000E+00 -3.72679723E-04
  5.53161228E-03  0.00000000E+00  0.00000000E+00 -2.35219468E-06 -5.35003058E-03
  0.00000000E+00  0.00000000E+00  1.64462029E-03 -6.72202880E-05  0.00000000E+00
  0.00000000E+00  1.14465208E-14  0.00000000E+00  2.23576167E-01  1.92616859E-01
  0.00000000E+00 -3.72679723E-04  0.00000000E+00  5.53161228E-03  0.00000000E+00
 -2.35219475E-06  0.00000000E+00 -5.35003058E-03  0.00000000E+00  1.64462029E-03
  0.00000000E+00  3.36101440E-05  0.00000000E+00  0.00000000E+00  5.82144771E-05
  0.00000000E+00  2.23576167E-01  1.92616859E-01  0.00000000E+00  0.00000000E+00
  3.72679723E-04  5.53161228E-03  0.00000000E+00  0.00000000E+00  2.35219468E-06
 -5.35003058E-03  0.00000000E+00  0.00000000E+00 -1.64462029E-03 -6.72202880E-05
  0.00000000E+00  0.00000000E+00  1.14465208E-14  0.00000000E+00  2.23576167E-01
  1.92616859E-01  0.00000000E+00  3.72679723E-04  0.00000000E+00  5.53161228E-03
  0.00000000E+00  2.35219475E-06  0.00000000E+00 -5.35003058E-03  0.00000000E+00
 -1.64462029E-03  0.00000000E+00  3.36101440E-05  0.00000000E+00  0.00000000E+00
  5.82144771E-05  0.00000000E+00  2.23576167E-01  1.92616859E-01 -3.72679723E-04
  0.00000000E+00  0.00000000E+00  5.53161229E-03 -2.35219484E-06  0.00000000E+00
  0.00000000E+00 -5.35003058E-03  1.64462029E-03  0.00000000E+00  0.00000000E+00
  3.36101440E-05  0.00000000E+00  0.00000000E+00 -5.82144771E-05  0.00000000E+00
  2.23576167E-01  1.92616859E-01  3.72679723E-04  0.00000000E+00  0.00000000E+00
  5.53161229E-03  2.35219484E-06  0.00000000E+00  0.00000000E+00 -5.35003058E-03
 -1.64462029E-03  0.00000000E+00  0.00000000E+00  3.36101440E-05  0.00000000E+00
  0.00000000E+00 -5.82144771E-05  0.00000000E+00  0.00000000E+00  0.00000000E+00
  0.00000000E+00  0.00000000E+00  0.00000000E+00  0.00000000E+00 -1.78970741E-05
  0.00000000E+00  0.00000000E+00  5.85249944E-05  0.00000000E+00  0.00000000E+00
 -4.48327347E-04  0.00000000E+00  0.00000000E+00  2.56523336E-03  0.00000000E+00
  0.00000000E+00  1.70854293E-03  0.00000000E+00  0.00000000E+00  0.00000000E+00
  0.00000000E+00  0.00000000E+00  0.00000000E+00  0.00000000E+00  0.00000000E+00
  0.00000000E+00  1.19951460E-05  0.00000000E+00  0.00000000E+00  0.00000000E+00
 -2.55850048E-05  0.00000000E+00  0.00000000E+00  0.00000000E+00 -2.55370592E-04
  0.00000000E+00  0.00000000E+00  0.00000000E+00  4.85853757E-05  0.00000000E+00
  0.00000000E+00  0.00000000E+00  0.00000000E+00  0.00000000E+00  1.19951460E-05
  0.00000000E+00  0.00000000E+00  0.00000000E+00 -2.55850048E-05  0.00000000E+00
  0.00000000E+00  0.00000000E+00 -2.55370592E-04  0.00000000E+00  0.00000000E+00
  0.00000000E+00  0.00000000E+00  0.00000000E+00  0.00000000E+00  4.85853757E-05
  0.00000000E+00  0.00000000E+00  1.19951460E-05  0.00000000E+00  0.00000000E+00
  0.00000000E+00 -2.55850048E-05  0.00000000E+00  0.00000000E+00  0.00000000E+00
 -2.55370592E-04  0.00000000E+00  0.00000000E+00  0.00000000E+00 -4.85853757E-05
  0.00000000E+00  0.00000000E+00  0.00000000E+00  0.00000000E+00  0.00000000E+00
  1.19951460E-05  0.00000000E+00  0.00000000E+00  0.00000000E+00 -2.55850048E-05
  0.00000000E+00  0.00000000E+00  0.00000000E+00 -2.55370592E-04  0.00000000E+00
  0.00000000E+00  0.00000000E+00  0.00000000E+00  0.00000000E+00  0.00000000E+00
 -4.85853757E-05  3.87251580E-01  3.33740915E-01 -6.28369173E-04  0.00000000E+00
  0.00000000E+00  8.42343913E-03  2.30689825E-05  0.00000000E+00  0.00000000E+00
 -4.60998342E-03  1.05219977E-03  0.00000000E+00  0.00000000E+00  4.41231096E-05
  0.00000000E+00  0.00000000E+00 -7.64234675E-05  0.00000000E+00 -3.87251580E-01
 -3.33740915E-01 -6.28369173E-04  0.00000000E+00  0.00000000E+00 -8.42343913E-03
  2.30689825E-05  0.00000000E+00  0.00000000E+00  4.60998342E-03  1.05219977E-03
  0.00000000E+00  0.00000000E+00 -4.41231096E-05  0.00000000E+00  0.00000000E+00
  7.64234675E-05  0.00000000E+00  0.00000000E+00  0.00000000E+00  0.00000000E+00
  0.00000000E+00  0.00000000E+00  0.00000000E+00  0.00000000E+00 -1.78970741E-05
  0.00000000E+00  0.00000000E+00  5.85249944E-05  0.00000000E+00  0.00000000E+00
 -4.48327347E-04  0.00000000E+00  0.00000000E+00  2.56523336E-03  0.00000000E+00
  0.00000000E+00  1.70854293E-03  0.00000000E+00  0.00000000E+00  0.00000000E+00
  0.00000000E+00  0.00000000E+00  0.00000000E+00  0.00000000E+00  0.00000000E+00
  0.00000000E+00  1.19951460E-05  0.00000000E+00  0.00000000E+00  0.00000000E+00
 -2.55850048E-05  0.00000000E+00  0.00000000E+00  0.00000000E+00 -2.55370592E-04
  0.00000000E+00  0.00000000E+00  0.00000000E+00  4.85853757E-05  0.00000000E+00
  0.00000000E+00  3.87251580E-01  3.33740915E-01  0.00000000E+00 -6.28369173E-04
  0.00000000E+00  8.42343913E-03  0.00000000E+00  2.30689825E-05  0.00000000E+00
 -4.60998342E-03  0.00000000E+00  1.05219977E-03  0.00000000E+00  4.41231096E-05
  0.00000000E+00  0.00000000E+00  7.64234675E-05  0.00000000E+00  0.00000000E+00
  0.00000000E+00  0.00000000E+00  1.19951460E-05  0.00000000E+00  0.00000000E+00
  0.00000000E+00 -2.55850048E-05  0.00000000E+00  0.00000000E+00  0.00000000E+00
 -2.55370592E-04  0.00000000E+00  0.00000000E+00  0.00000000E+00 -4.85853757E-05
  0.00000000E+00  0.00000000E+00 -3.87251580E-01 -3.33740915E-01  0.00000000E+00
 -6.28369173E-04  0.00000000E+00 -8.42343913E-03  0.00000000E+00  2.30689825E-05
  0.00000000E+00  4.60998342E-03  0.00000000E+00  1.05219977E-03  0.00000000E+00
 -4.41231096E-05  0.00000000E+00  0.00000000E+00 -7.64234675E-05  0.00000000E+00
  0.00000000E+00  0.00000000E+00  0.00000000E+00  1.19951460E-05  0.00000000E+00
  0.00000000E+00  0.00000000E+00 -2.55850048E-05  0.00000000E+00  0.00000000E+00
  0.00000000E+00 -2.55370592E-04  0.00000000E+00  0.00000000E+00  0.00000000E+00
  0.00000000E+00  0.00000000E+00  4.85853757E-05  0.00000000E+00  0.00000000E+00
  0.00000000E+00  1.19951460E-05  0.00000000E+00  0.00000000E+00  0.00000000E+00
 -2.55850048E-05  0.00000000E+00  0.00000000E+00  0.00000000E+00 -2.55370592E-04
  0.00000000E+00  0.00000000E+00  0.00000000E+00  0.00000000E+00  0.00000000E+00