title                                                                   
FOpt      RB3LYP                                                      6-311G(d,p)         
Number of atoms                            I                7
Info1-9                                    I   N=           9
          16          16           0           0           0         110
           2          18        -502
Full Title                                 C   N=           1
title       
Route                                      C   N=           6
#p B3LYP/6-311G(d,p) opt=verytight int(grid=ultrafine) maxdi
sk=50GB     
Charge                                     I                0
Multiplicity                               I                1
Number of electrons                        I               70
Number of alpha electrons                  I               35
Number of beta electrons                   I               35
Number of basis functions                  I              134
Number of independent functions            I              134
Number of point charges in /Mol/           I                0
Number of translation vectors              I                0
Atomic numbers                             I   N=           7
          16           9           9           9           9           9
           9
Nuclear charges                            R   N=           7
  1.60000000E+01  9.00000000E+00  9.00000000E+00  9.00000000E+00  9.00000000E+00
  9.00000000E+00  9.00000000E+00
Current cartesian coordinates              R   N=          21
  0.00000000E+00  0.00000000E+00  0.00000000E+00 -7.21906316E-31 -1.18329136E-30
  3.02989967E+00 -8.87468518E-31  3.02989967E+00 -5.56583541E-16 -4.48900901E-32
 -3.71055694E-16 -3.02989967E+00 -1.97215226E-31 -3.02989967E+00  1.85527847E-16
  3.02989967E+00 -1.20192191E-30  1.85527847E-16 -3.02989967E+00 -2.39931179E-31
 -5.56583541E-16
Number of symbols in /Mol/                 I                0
Force Field                                I                0
Atom Types                                 C   N=           7
                                                            
                        
Int Atom Types                             I   N=           7
           0           0           0           0           0           0
           0
MM charges                                 R   N=           7
  0.00000000E+00  0.00000000E+00  0.00000000E+00  0.00000000E+00  0.00000000E+00
  0.00000000E+00  0.00000000E+00
Integer atomic weights                     I   N=           7
          32          19          19          19          19          19
          19
Real atomic weights                        R   N=           7
  3.19720718E+01  1.89984032E+01  1.89984032E+01  1.89984032E+01  1.89984032E+01
  1.89984032E+01  1.89984032E+01
Atom fragment info                         I   N=           7
           0           0           0           0           0           0
           0
Atom residue num                           I   N=           7
           0           0           0           0           0           0
           0
Nuclear spins                              I   N=           7
           0           1           1           1           1           1
           1
Nuclear ZEff                               R   N=           7
 -1.36000000E+01 -6.75000000E+00 -6.75000000E+00 -6.75000000E+00 -6.75000000E+00
 -6.75000000E+00 -6.75000000E+00
Nuclear ZNuc                               R   N=           7
  1.60000000E+01  9.00000000E+00  9.00000000E+00  9.00000000E+00  9.00000000E+00
  9.00000000E+00  9.00000000E+00
Nuclear QMom                               R   N=           7
  0.00000000E+00  0.00000000E+00  0.00000000E+00  0.00000000E+00  0.00000000E+00
  0.00000000E+00  0.00000000E+00
Nuclear GFac                               R   N=           7
  0.00000000E+00  2.62886700E+00  2.62886700E+00  2.62886700E+00  2.62886700E+00
  2.62886700E+00  2.62886700E+00
MicOpt                                     I   N=           7
          -1          -1          -1          -1          -1          -1
          -1
Number of residues                         I                0
Number of secondary structures             I                0
Redundant internal dimensions              I   N=           4
          32           6          18           8
Redundant internal coordinate indices      I   N=         128
           1           2           0           0           1           3
           0           0           1           4           0           0
           1           5           0           0           1           6
           0           0           1           7           0           0
           2           1           3           0           2           1
           5           0           2           1           6           0
           2           1           7           0           3           1
           4           0           3           1           6           0
           3           1           7           0           4           1
           5           0           4           1           6           0
           4           1           7           0           5           1
           6           0           5           1           7           0
           2           1           4         -31           3           1
           5         -21           6           1           7         -21
           2           1           4         -32           3           1
           5         -22           6           1           7         -22
           2           1           6           3           2           1
           7           3           2           1           6           5
           2           1           7           5           3           1
           6           4           3           1           7           4
           4           1           6           5           4           1
           7           5
Redundant internal coordinates             R   N=          32
  3.02989967E+00  3.02989967E+00  3.02989967E+00  3.02989967E+00  3.02989967E+00
  3.02989967E+00  1.57079633E+00  1.57079633E+00  1.57079633E+00  1.57079633E+00
  1.57079633E+00  1.57079633E+00  1.57079633E+00  1.57079633E+00  1.57079633E+00
  1.57079633E+00  1.57079633E+00  1.57079633E+00  3.14159265E+00  3.14159265E+00
  3.14159265E+00  3.14159265E+00  3.14159265E+00  3.14159265E+00 -1.57079633E+00
  1.57079633E+00  1.57079633E+00 -1.57079633E+00 -1.57079633E+00  1.57079633E+00
 -1.57079633E+00  1.57079633E+00
ZRed-IntVec                                I   N=          32
           0           0           0           0           0           0
           0           0           0           0           0           0
           0           0           0           0           0           0
           0           0           0           0           0           0
           0           0           0           0           0           0
           0           0
ZRed-FPVec                                 R   N=          32
  0.00000000E+00  0.00000000E+00  0.00000000E+00  0.00000000E+00  0.00000000E+00
  0.00000000E+00  0.00000000E+00  0.00000000E+00  0.00000000E+00  0.00000000E+00
  0.00000000E+00  0.00000000E+00  0.00000000E+00  0.00000000E+00  0.00000000E+00
  0.00000000E+00  0.00000000E+00  0.00000000E+00  0.00000000E+00  0.00000000E+00
  0.00000000E+00  0.00000000E+00  0.00000000E+00  0.00000000E+00  0.00000000E+00
  0.00000000E+00  0.00000000E+00  0.00000000E+00  0.00000000E+00  0.00000000E+00
  0.00000000E+00  0.00000000E+00
ZRed-Constraint1                           R   N=          32
  2.94797275E+00  2.94797275E+00  2.94797275E+00  2.94797275E+00  2.94797275E+00
  2.94797275E+00  1.57079633E+00  1.57079633E+00  1.57079633E+00  1.57079633E+00
  1.57079633E+00  1.57079633E+00  1.57079633E+00  1.57079633E+00  1.57079633E+00
  1.57079633E+00  1.57079633E+00  1.57079633E+00  3.14159265E+00  3.14159265E+00
  3.14159265E+00  3.14159265E+00  3.14159265E+00  3.14159265E+00 -1.57079633E+00
  1.57079633E+00  1.57079633E+00 -1.57079633E+00 -1.57079633E+00  1.57079633E+00
 -1.57079633E+00  1.57079633E+00
ZRed-Constraint2                           R   N=          32
  0.00000000E+00  0.00000000E+00  0.00000000E+00  0.00000000E+00  0.00000000E+00
  0.00000000E+00  0.00000000E+00  0.00000000E+00  0.00000000E+00  0.00000000E+00
  0.00000000E+00  0.00000000E+00  0.00000000E+00  0.00000000E+00  0.00000000E+00
  0.00000000E+00  0.00000000E+00  0.00000000E+00  0.00000000E+00  0.00000000E+00
  0.00000000E+00  0.00000000E+00  0.00000000E+00  0.00000000E+00  0.00000000E+00
  0.00000000E+00  0.00000000E+00  0.00000000E+00  0.00000000E+00  0.00000000E+00
  0.00000000E+00  0.00000000E+00
SymInf integers                            I   N=          26
           8           8           1           1           1           1
          -1          -1          -1           1          -1          -1
          -1           1          -1          -1          -1          -1
           1           1           1          -1           1           1
           1          -1
RotTr to input orientation                 R   N=          12
  2.44929360E-16 -1.00000000E+00 -1.97215226E-31  1.00000000E+00  2.44929360E-16
 -1.16341446E-15  1.16341446E-15  1.43600407E-31  1.00000000E+00 -6.80227035E-17
  0.00000000E+00 -3.62174974E-16
Number of contracted shells                I               42
Number of primitive shells                 I               95
Pure/Cartesian d shells                    I                0
Pure/Cartesian f shells                    I                0
Highest angular momentum                   I                2
Largest degree of contraction              I                6
Shell types                                I   N=          42
           0           0           0           0           0           0
           1           1           1           1           1          -2
           0          -1          -1          -1          -2           0
          -1          -1          -1          -2           0          -1
          -1          -1          -2           0          -1          -1
          -1          -2           0          -1          -1          -1
          -2           0          -1          -1          -1          -2
Number of primitives per shell             I   N=          42
           6           3           1           1           1           1
           4           2           1           1           1           1
           6           3           1           1           1           6
           3           1           1           1           6           3
           1           1           1           6           3           1
           1           1           6           3           1           1
           1           6           3           1           1           1
Shell to atom map                          I   N=          42
           1           1           1           1           1           1
           1           1           1           1           1           1
           2           2           2           2           2           3
           3           3           3           3           4           4
           4           4           4           5           5           5
           5           5           6           6           6           6
           6           7           7           7           7           7
Primitive exponents                        R   N=          95
  9.34134000E+04  1.39617000E+04  3.16991000E+03  9.02456000E+02  2.97158000E+02
  1.08702000E+02  1.08702000E+02  4.31553000E+01  1.81079000E+01  5.56009000E+00
  2.13183000E+00  4.20403000E-01  1.36045000E-01  4.95040000E+02  1.17221000E+02
  3.77749000E+01  1.40584000E+01  5.56574000E+00  2.26297000E+00  8.07994000E-01
  2.77460000E-01  7.71410000E-02  6.50000000E-01  1.14271000E+04  1.72235000E+03
  3.95746000E+02  1.15139000E+02  3.36026000E+01  4.91901000E+00  5.54441000E+01
  1.26323000E+01  3.71756000E+00  1.16545000E+00  3.21892000E-01  1.75000000E+00
  1.14271000E+04  1.72235000E+03  3.95746000E+02  1.15139000E+02  3.36026000E+01
  4.91901000E+00  5.54441000E+01  1.26323000E+01  3.71756000E+00  1.16545000E+00
  3.21892000E-01  1.75000000E+00  1.14271000E+04  1.72235000E+03  3.95746000E+02
  1.15139000E+02  3.36026000E+01  4.91901000E+00  5.54441000E+01  1.26323000E+01
  3.71756000E+00  1.16545000E+00  3.21892000E-01  1.75000000E+00  1.14271000E+04
  1.72235000E+03  3.95746000E+02  1.15139000E+02  3.36026000E+01  4.91901000E+00
  5.54441000E+01  1.26323000E+01  3.71756000E+00  1.16545000E+00  3.21892000E-01
  1.75000000E+00  1.14271000E+04  1.72235000E+03  3.95746000E+02  1.15139000E+02
  3.36026000E+01  4.91901000E+00  5.54441000E+01  1.26323000E+01  3.71756000E+00
  1.16545000E+00  3.21892000E-01  1.75000000E+00  1.14271000E+04  1.72235000E+03
  3.95746000E+02  1.15139000E+02  3.36026000E+01  4.91901000E+00  5.54441000E+01
  1.26323000E+01  3.71756000E+00  1.16545000E+00  3.21892000E-01  1.75000000E+00
Contraction coefficients                   R   N=          95
  7.42999957E-04  5.79299966E-03  2.99539983E-02  1.19027993E-01  3.68431979E-01
  5.77298966E-01  1.43186060E-01  6.24465262E-01  2.83366119E-01  1.00000000E+00
  1.00000000E+00  1.00000000E+00  1.00000000E+00  8.30900251E-03  6.40240194E-02
  2.77614084E-01  7.45076225E-01  6.13711672E-01  4.43817763E-01  1.00000000E+00
  1.00000000E+00  1.00000000E+00  1.00000000E+00  1.80093016E-03  1.37419012E-02
  6.81334059E-02  2.33325020E-01  5.89086051E-01  2.99505026E-01  1.14536016E-01
  9.20512125E-01 -3.37804046E-03  1.00000000E+00  1.00000000E+00  1.00000000E+00
  1.80093016E-03  1.37419012E-02  6.81334059E-02  2.33325020E-01  5.89086051E-01
  2.99505026E-01  1.14536016E-01  9.20512125E-01 -3.37804046E-03  1.00000000E+00
  1.00000000E+00  1.00000000E+00  1.80093016E-03  1.37419012E-02  6.81334059E-02
  2.33325020E-01  5.89086051E-01  2.99505026E-01  1.14536016E-01  9.20512125E-01
 -3.37804046E-03  1.00000000E+00  1.00000000E+00  1.00000000E+00  1.80093016E-03
  1.37419012E-02  6.81334059E-02  2.33325020E-01  5.89086051E-01  2.99505026E-01
  1.14536016E-01  9.20512125E-01 -3.37804046E-03  1.00000000E+00  1.00000000E+00
  1.00000000E+00  1.80093016E-03  1.37419012E-02  6.81334059E-02  2.33325020E-01
  5.89086051E-01  2.99505026E-01  1.14536016E-01  9.20512125E-01 -3.37804046E-03
  1.00000000E+00  1.00000000E+00  1.00000000E+00  1.80093016E-03  1.37419012E-02
  6.81334059E-02  2.33325020E-01  5.89086051E-01  2.99505026E-01  1.14536016E-01
  9.20512125E-01 -3.37804046E-03  1.00000000E+00  1.00000000E+00  1.00000000E+00
P(S=P) Contraction coefficients            R   N=          95
  0.00000000E+00  0.00000000E+00  0.00000000E+00  0.00000000E+00  0.00000000E+00
  0.00000000E+00  0.00000000E+00  0.00000000E+00  0.00000000E+00  0.00000000E+00
  0.00000000E+00  0.00000000E+00  0.00000000E+00  0.00000000E+00  0.00000000E+00
  0.00000000E+00  0.00000000E+00  0.00000000E+00  0.00000000E+00  0.00000000E+00
  0.00000000E+00  0.00000000E+00  0.00000000E+00  0.00000000E+00  0.00000000E+00
  0.00000000E+00  0.00000000E+00  0.00000000E+00  0.00000000E+00  3.54608874E-02
  2.37450915E-01  8.20457708E-01  1.00000000E+00  1.00000000E+00  0.00000000E+00
  0.00000000E+00  0.00000000E+00  0.00000000E+00  0.00000000E+00  0.00000000E+00
  0.00000000E+00  3.54608874E-02  2.37450915E-01  8.20457708E-01  1.00000000E+00
  1.00000000E+00  0.00000000E+00  0.00000000E+00  0.00000000E+00  0.00000000E+00
  0.00000000E+00  0.00000000E+00  0.00000000E+00  3.54608874E-02  2.37450915E-01
  8.20457708E-01  1.00000000E+00  1.00000000E+00  0.00000000E+00  0.00000000E+00
  0.00000000E+00  0.00000000E+00  0.00000000E+00  0.00000000E+00  0.00000000E+00
  3.54608874E-02  2.37450915E-01  8.20457708E-01  1.00000000E+00  1.00000000E+00
  0.00000000E+00  0.00000000E+00  0.00000000E+00  0.00000000E+00  0.00000000E+00
  0.00000000E+00  0.00000000E+00  3.54608874E-02  2.37450915E-01  8.20457708E-01
  1.00000000E+00  1.00000000E+00  0.00000000E+00  0.00000000E+00  0.00000000E+00
  0.00000000E+00  0.00000000E+00  0.00000000E+00  0.00000000E+00  3.54608874E-02
  2.37450915E-01  8.20457708E-01  1.00000000E+00  1.00000000E+00  0.00000000E+00
Coordinates of each shell                  R   N=         126
  0.00000000E+00  0.00000000E+00  0.00000000E+00  0.00000000E+00  0.00000000E+00
  0.00000000E+00  0.00000000E+00  0.00000000E+00  0.00000000E+00  0.00000000E+00
  0.00000000E+00  0.00000000E+00  0.00000000E+00  0.00000000E+00  0.00000000E+00
  0.00000000E+00  0.00000000E+00  0.00000000E+00  0.00000000E+00  0.00000000E+00
  0.00000000E+00  0.00000000E+00  0.00000000E+00  0.00000000E+00  0.00000000E+00
  0.00000000E+00  0.00000000E+00  0.00000000E+00  0.00000000E+00  0.00000000E+00
  0.00000000E+00  0.00000000E+00  0.00000000E+00  0.00000000E+00  0.00000000E+00
  0.00000000E+00 -2.82857099E-31  0.00000000E+00  3.02989967E+00 -2.82857099E-31
  0.00000000E+00  3.02989967E+00 -2.82857099E-31  0.00000000E+00  3.02989967E+00
 -2.82857099E-31  0.00000000E+00  3.02989967E+00 -2.82857099E-31  0.00000000E+00
  3.02989967E+00 -2.95822839E-31  3.02989967E+00 -5.56583541E-16 -2.95822839E-31
  3.02989967E+00 -5.56583541E-16 -2.95822839E-31  3.02989967E+00 -5.56583541E-16
 -2.95822839E-31  3.02989967E+00 -5.56583541E-16 -2.95822839E-31  3.02989967E+00
 -5.56583541E-16  9.42856995E-32 -3.71055694E-16 -3.02989967E+00  9.42856995E-32
 -3.71055694E-16 -3.02989967E+00  9.42856995E-32 -3.71055694E-16 -3.02989967E+00
  9.42856995E-32 -3.71055694E-16 -3.02989967E+00  9.42856995E-32 -3.71055694E-16
 -3.02989967E+00 -2.95822839E-31 -3.02989967E+00  1.85527847E-16 -2.95822839E-31
 -3.02989967E+00  1.85527847E-16 -2.95822839E-31 -3.02989967E+00  1.85527847E-16
 -2.95822839E-31 -3.02989967E+00  1.85527847E-16 -2.95822839E-31 -3.02989967E+00
  1.85527847E-16  3.02989967E+00  2.68106634E-32  1.85527847E-16  3.02989967E+00
  2.68106634E-32  1.85527847E-16  3.02989967E+00  2.68106634E-32  1.85527847E-16
  3.02989967E+00  2.68106634E-32  1.85527847E-16  3.02989967E+00  2.68106634E-32
  1.85527847E-16 -3.02989967E+00  1.81756229E-32 -5.56583541E-16 -3.02989967E+00
  1.81756229E-32 -5.56583541E-16 -3.02989967E+00  1.81756229E-32 -5.56583541E-16
 -3.02989967E+00  1.81756229E-32 -5.56583541E-16 -3.02989967E+00  1.81756229E-32
 -5.56583541E-16
Num ILSW                                   I              100
ILSW                                       I   N=         100
           0           0           0           1           2           0
           0           0           0           0         402  6710886400
           5           0           0           0           2           0
           0           0           0           0           1           0
           1           0           0           0           0           0
           0           0      100000           0          -1           0
           0           0           0           0           0           0
           0           0           0           1           0           0
           0 -2000000000           1           0           0           0
           0           0           4          52           0           0
           0           0           5           0           0           0
           0           0           0           7           0           1
           0           0           0           0           0           0
           0           0           0           0           0           0
           0           0           0           0           0           0
           0           0           0           0           0           0
           0           0           0           0
Num RLSW                                   I               52
RLSW                                       R   N=          52
  8.00000000E-01  7.20000000E-01  1.00000000E+00  8.10000000E-01  2.00000000E-01
  0.00000000E+00  0.00000000E+00  1.00000000E+00  0.00000000E+00  0.00000000E+00
  0.00000000E+00  0.00000000E+00  1.00000000E+00  0.00000000E+00  0.00000000E+00
  0.00000000E+00  0.00000000E+00  1.00000000E+00  0.00000000E+00  0.00000000E+00
  0.00000000E+00  0.00000000E+00  1.00000000E+00  0.00000000E+00  0.00000000E+00
  0.00000000E+00  0.00000000E+00  1.00000000E+00  0.00000000E+00  0.00000000E+00
  0.00000000E+00  0.00000000E+00  1.00000000E+00  0.00000000E+00  0.00000000E+00
  0.00000000E+00  0.00000000E+00  0.00000000E+00  1.00000000E+00  1.00000000E+00
  0.00000000E+00  1.00000000E+00  0.00000000E+00  0.00000000E+00  0.00000000E+00
  0.00000000E+00  0.00000000E+00  0.00000000E+00  0.00000000E+00  0.00000000E+00
  0.00000000E+00  0.00000000E+00
MxBond                                     I                6
NBond                                      I   N=           7
           6           1           1           1           1           1
           1
IBond                                      I   N=          42
           2           3           4           5           6           7
           1           0           0           0           0           0
           1           0           0           0           0           0
           1           0           0           0           0           0
           1           0           0           0           0           0
           1           0           0           0           0           0
           1           0           0           0           0           0
RBond                                      R   N=          42
  1.00000000E+00  1.00000000E+00  1.00000000E+00  1.00000000E+00  1.00000000E+00
  1.00000000E+00  1.00000000E+00  0.00000000E+00  0.00000000E+00  0.00000000E+00
  0.00000000E+00  0.00000000E+00  1.00000000E+00  0.00000000E+00  0.00000000E+00
  0.00000000E+00  0.00000000E+00  0.00000000E+00  1.00000000E+00  0.00000000E+00
  0.00000000E+00  0.00000000E+00  0.00000000E+00  0.00000000E+00  1.00000000E+00
  0.00000000E+00  0.00000000E+00  0.00000000E+00  0.00000000E+00  0.00000000E+00
  1.00000000E+00  0.00000000E+00  0.00000000E+00  0.00000000E+00  0.00000000E+00
  0.00000000E+00  1.00000000E+00  0.00000000E+00  0.00000000E+00  0.00000000E+00
  0.00000000E+00  0.00000000E+00
Virial Ratio                               R      2.001603364130887E+00
SCF Energy                                 R     -9.972946752869030E+02
Total Energy                               R     -9.972946752869030E+02
RMS Force                                  R      3.617852676293252E-09
RMS Density                                R      5.617310344423758E-09
Job Status                                 I                1
Nuclear derivative order                   I                1
External E-field                           R   N=          35
  0.00000000E+00  0.00000000E+00  0.00000000E+00  0.00000000E+00  0.00000000E+00
  0.00000000E+00  0.00000000E+00  0.00000000E+00  0.00000000E+00  0.00000000E+00
  0.00000000E+00  0.00000000E+00  0.00000000E+00  0.00000000E+00  0.00000000E+00
  0.00000000E+00  0.00000000E+00  0.00000000E+00  0.00000000E+00  0.00000000E+00
  0.00000000E+00  0.00000000E+00  0.00000000E+00  0.00000000E+00  0.00000000E+00
  0.00000000E+00  0.00000000E+00  0.00000000E+00  0.00000000E+00  0.00000000E+00
  0.00000000E+00  0.00000000E+00  0.00000000E+00  0.00000000E+00  0.00000000E+00
IOpCl                                      I                0
IROHF                                      I                0
Alpha Orbital Energies                     R   N=         134
 -8.92975620E+01 -2.47575125E+01 -2.47574902E+01 -2.47574902E+01 -2.47574902E+01
 -2.47574817E+01 -2.47574817E+01 -8.33829771E+00 -6.30234187E+00 -6.30234187E+00
 -6.30234187E+00 -1.41920427E+00 -1.30061775E+00 -1.30061775E+00 -1.30061775E+00
 -1.25432083E+00 -1.25432083E+00 -8.46683141E-01 -6.86995089E-01 -6.86995089E-01
 -6.86995089E-01 -5.73156315E-01 -5.73156315E-01 -5.73156315E-01 -5.45428750E-01
 -5.45428750E-01 -4.92337772E-01 -4.92337772E-01 -4.92337772E-01 -4.89145394E-01
 -4.89145394E-01 -4.89145394E-01 -4.52850327E-01 -4.52850327E-01 -4.52850327E-01
 -1.22082962E-01  5.48242792E-02  5.48242792E-02  5.48242792E-02  1.70027317E-01
  1.70027317E-01  1.70027317E-01  3.41232028E-01  4.79168140E-01  4.79168140E-01
  4.79168140E-01  8.20690851E-01  8.20690851E-01  8.59218412E-01  8.59218412E-01
  8.59218412E-01  8.64469750E-01  8.64469750E-01  8.64469750E-01  9.13541511E-01
  9.72272455E-01  9.72272455E-01  9.72272455E-01  9.81804171E-01  9.81804171E-01
  1.19293292E+00  1.19293292E+00  1.19293292E+00  1.28734252E+00  1.28734252E+00
  1.28734252E+00  1.50458567E+00  1.50458567E+00  1.56678437E+00  1.56678437E+00
  1.56678437E+00  1.77425054E+00  1.77425054E+00  1.77425054E+00  2.27823815E+00
  3.65021697E+00  3.65021697E+00  3.65021697E+00  3.66270475E+00  3.66270475E+00
  3.66270475E+00  3.69794123E+00  3.69794862E+00  3.69794862E+00  3.69794862E+00
  3.69818539E+00  3.69818539E+00  3.69888778E+00  3.70666815E+00  3.70666815E+00
  3.70666815E+00  3.71173618E+00  3.71173618E+00  3.74042394E+00  3.74042394E+00
  3.74042394E+00  3.78863591E+00  3.78863591E+00  3.78863591E+00  3.79069568E+00
  4.18988022E+00  4.18988022E+00  4.18988022E+00  4.19035387E+00  4.19035387E+00
  5.88358558E+00  5.88358558E+00  5.88358558E+00  5.91138391E+00  5.94777282E+00
  5.94777282E+00  5.94777282E+00  6.00422735E+00  6.00422735E+00  6.00422735E+00
  6.12360496E+00  6.12360496E+00  6.12360496E+00  6.13178611E+00  6.13178611E+00
  6.26078527E+00  6.26078527E+00  6.26078527E+00  7.62611822E+00  1.71623718E+01
  1.71623718E+01  1.71623718E+01  6.65690185E+01  6.65690185E+01  6.66413659E+01
  6.66413659E+01  6.66413659E+01  6.68445146E+01  1.88503875E+02
Alpha MO coefficients                      R   N=       17956
  4.10923469E-01  6.54383475E-01  1.51987605E-02 -4.41070270E-03  1.39021683E-03
 -1.26730907E-04  0.00000000E+00  0.00000000E+00  0.00000000E+00  0.00000000E+00
  0.00000000E+00  0.00000000E+00  0.00000000E+00  0.00000000E+00  0.00000000E+00
  0.00000000E+00  0.00000000E+00  0.00000000E+00  0.00000000E+00  0.00000000E+00
  0.00000000E+00 -4.65628737E-16  0.00000000E+00  0.00000000E+00 -4.52806274E-17
  0.00000000E+00  1.08791896E-06 -3.28896538E-06  0.00000000E+00  0.00000000E+00
 -1.22264813E-05  4.05036867E-05  0.00000000E+00  0.00000000E+00  1.10836292E-05
 -9.70617183E-05  0.00000000E+00  0.00000000E+00  1.14541090E-04 -4.54922438E-05
  0.00000000E+00  0.00000000E+00  1.00488179E-18  0.00000000E+00  1.08791896E-06
 -3.28896538E-06  0.00000000E+00 -1.22264813E-05  0.00000000E+00  4.05036867E-05
  0.00000000E+00  1.10836292E-05  0.00000000E+00 -9.70617183E-05  0.00000000E+00
  1.14541090E-04  0.00000000E+00  2.27461219E-05  0.00000000E+00  0.00000000E+00
  3.93974388E-05  0.00000000E+00  1.08791896E-06 -3.28896538E-06  0.00000000E+00
  0.00000000E+00  1.22264813E-05  4.05036867E-05  0.00000000E+00  0.00000000E+00
 -1.10836292E-05 -9.70617183E-05  0.00000000E+00  0.00000000E+00 -1.14541090E-04
 -4.54922438E-05  0.00000000E+00  0.00000000E+00  1.00488179E-18  0.00000000E+00
  1.08791896E-06 -3.28896538E-06  0.00000000E+00  1.22264813E-05  0.00000000E+00
  4.05036867E-05  0.00000000E+00 -1.10836292E-05  0.00000000E+00 -9.70617183E-05
  0.00000000E+00 -1.14541090E-04  0.00000000E+00  2.27461219E-05  0.00000000E+00
  0.00000000E+00  3.93974388E-05  0.00000000E+00  1.08791896E-06 -3.28896538E-06
 -1.22264813E-05  0.00000000E+00  0.00000000E+00  4.05036867E-05  1.10836292E-05
  0.00000000E+00  0.00000000E+00 -9.70617183E-05  1.14541090E-04  0.00000000E+00
  0.00000000E+00  2.27461219E-05  0.00000000E+00  0.00000000E+00 -3.93974388E-05
  0.00000000E+00  1.08791896E-06 -3.28896538E-06  1.22264813E-05  0.00000000E+00
  0.00000000E+00  4.05036867E-05 -1.10836292E-05  0.00000000E+00  0.00000000E+00
 -9.70617183E-05 -1.14541090E-04  0.00000000E+00  0.00000000E+00  2.27461219E-05
  0.00000000E+00  0.00000000E+00 -3.93974388E-05  0.00000000E+00  1.27054970E-06
 -9.36913894E-07  2.55936229E-05 -5.46935468E-05 -3.82061448E-03  1.55065332E-02
  0.00000000E+00  0.00000000E+00  0.00000000E+00  0.00000000E+00  0.00000000E+00
  0.00000000E+00  0.00000000E+00  0.00000000E+00  0.00000000E+00  0.00000000E+00
  0.00000000E+00  0.00000000E+00  0.00000000E+00  0.00000000E+00  0.00000000E+00
  6.51749321E-14  0.00000000E+00  0.00000000E+00 -8.30268270E-14  0.00000000E+00
  2.23576167E-01  1.92616859E-01  0.00000000E+00  0.00000000E+00 -3.72679914E-04
  5.53161230E-03  0.00000000E+00  0.00000000E+00 -2.35197926E-06 -5.35003126E-03
  0.00000000E+00  0.00000000E+00  1.64462013E-03 -6.72202791E-05  0.00000000E+00
  0.00000000E+00 -4.84129939E-15  0.00000000E+00  2.23576167E-01  1.92616859E-01
  0.00000000E+00 -3.72679914E-04  0.00000000E+00  5.53161230E-03  0.00000000E+00
 -2.35197926E-06  0.00000000E+00 -5.35003126E-03  0.00000000E+00  1.64462013E-03
  0.00000000E+00  3.36101396E-05  0.00000000E+00  0.00000000E+00  5.82144694E-05
  0.00000000E+00  2.23576167E-01  1.92616859E-01  0.00000000E+00  0.00000000E+00
  3.72679914E-04  5.53161230E-03  0.00000000E+00  0.00000000E+00  2.35197926E-06
 -5.35003126E-03  0.00000000E+00  0.00000000E+00 -1.64462013E-03 -6.72202791E-05
  0.00000000E+00  0.00000000E+00 -4.84129939E-15  0.00000000E+00  2.23576167E-01
  1.92616859E-01  0.00000000E+00  3.72679914E-04  0.00000000E+00  5.53161230E-03
  0.00000000E+00  2.35197926E-06  0.00000000E+00 -5.35003126E-03  0.00000000E+00
 -1.64462013E-03  0.00000000E+00  3.36101396E-05  0.00000000E+00  0.00000000E+00
  5.82144694E-05  0.00000000E+00  2.23576167E-01  1.92616859E-01 -3.72679914E-04
  0.00000000E+00  0.00000000E+00  5.53161230E-03 -2.35197922E-06  0.00000000E+00
  0.00000000E+00 -5.35003126E-03  1.64462013E-03  0.00000000E+00  0.00000000E+00
  3.36101395E-05  0.00000000E+00  0.00000000E+00 -5.82144693E-05  0.00000000E+00
  2.23576167E-01  1.92616859E-01  3.72679914E-04  0.00000000E+00  0.00000000E+00
  5.53161230E-03  2.35197922E-06  0.00000000E+00  0.00000000E+00 -5.35003126E-03