 vasp.5.4.1 24Jun15 (build Oct 31 2015 19:43:09) complex                        
  
 executed on           IFC91_ompi date 2016.09.23  09:38:45
 running on   24 total cores
 distrk:  each k-point on   24 cores,    1 groups
 distr:  one band on NCORES_PER_BAND=  24 cores,    1 groups


--------------------------------------------------------------------------------------------------------


 INCAR:
 POTCAR:    PAW H_GW 21Apr2008                    
 POTCAR:    PAW C_GW 28Sep2005                    
 POTCAR:    PAW Zn_sv_GW 01Dec2010                
 POTCAR:    PAW N_GW 10Apr2007                    

 ----------------------------------------------------------------------------- 
|                                                                             |
|           W    W    AA    RRRRR   N    N  II  N    N   GGGG   !!!           |
|           W    W   A  A   R    R  NN   N  II  NN   N  G    G  !!!           |
|           W    W  A    A  R    R  N N  N  II  N N  N  G       !!!           |
|           W WW W  AAAAAA  RRRRR   N  N N  II  N  N N  G  GGG   !            |
|           WW  WW  A    A  R   R   N   NN  II  N   NN  G    G                |
|           W    W  A    A  R    R  N    N  II  N    N   GGGG   !!!           |
|                                                                             |
|      For optimal performance we recommend to set                            |
|        NCORE= 4 - approx SQRT( number of cores)                             |
|      NCORE specifies how many cores store one orbital (NPAR=cpu/NCORE).     |
|      This setting can  greatly improve the performance of VASP for DFT.     |
|      The default, NPAR=number of cores might be grossly inefficient         |
|      on modern multi-core architectures or massively parallel machines.     |
|      Do your own testing !!!!                                               |
|      Unfortunately you need to use the default for GW and RPA calculations. |
|      (for HF NCORE is supported but not extensively tested yet)             |
|                                                                             |
 ----------------------------------------------------------------------------- 

 POTCAR:    PAW H_GW 21Apr2008                    
   VRHFIN =H: ultrasoft test                                                    
   LEXCH  = PE                                                                  
   EATOM  =    12.4884 eV,    0.9179 Ry                                         
                                                                                
   TITEL  = PAW H_GW 21Apr2008                                                  
   LULTRA =        F    use ultrasoft PP ?                                      
   IUNSCR =        0    unscreen: 0-lin 1-nonlin 2-no                           
   RPACOR =    0.000    partial core radius                                     
   POMASS =    1.000; ZVAL   =    1.000    mass and valenz                      
   RCORE  =    1.100    outmost cutoff radius                                   
   RWIGS  =    1.100; RWIGS  =    0.582    wigner-seitz radius (au A)           
   ENMAX  =  300.000; ENMIN  =  250.000 eV                                      
   RCLOC  =    0.701    cutoff for local pot                                    
   LCOR   =        T    correct aug charges                                     
   LPAW   =        T    paw PP                                                  
   EAUG   =  500.000                                                            
   RMAX   =    1.123    core radius for proj-oper                               
   RAUG   =    1.200    factor for augmentation sphere                          
   RDEP   =    1.112    radius for radial grids                                 
   RDEPT  =    1.100    core radius for aug-charge                              
                                                                                
   Atomic configuration                                                         
    3 entries                                                                   
     n  l   j            E        occ.                                          
     1  0  0.50        -6.4927   1.0000                                         
     2  1  0.50        -3.4015   0.0000                                         
     3  2  1.50        13.6058   0.0000                                         
   Description                                                                  
     l       E           TYP  RCUT    TYP  RCUT                                 
     0     -6.4927495     23  0.950                                             
     0      6.8029130     23  0.950                                             
     1     -4.0817478     23  1.100                                             
     1    108.8466080     23  1.100                                             
     2     81.6349560     23  1.100                                             
  local pseudopotential read in
  kinetic energy density of atom read in
  atomic valenz-charges read in
  non local Contribution for L=           0  read in
    real space projection operators read in
  non local Contribution for L=           0  read in
    real space projection operators read in
  non local Contribution for L=           1  read in
    real space projection operators read in
  non local Contribution for L=           1  read in
    real space projection operators read in
  non local Contribution for L=           2  read in
    real space projection operators read in
    PAW grid and wavefunctions read in
 
   number of l-projection  operators is LMAX  =           5
   number of lm-projection operators is LMMAX =          13
 
 POTCAR:    PAW C_GW 28Sep2005                    
   VRHFIN =C: s2p2                                                              
   LEXCH  = PE                                                                  
   EATOM  =   147.1560 eV,   10.8157 Ry                                         
                                                                                
   TITEL  = PAW C_GW 28Sep2005                                                  
   LULTRA =        F    use ultrasoft PP ?                                      
   IUNSCR =        0    unscreen: 0-lin 1-nonlin 2-no                           
   RPACOR =    0.000    partial core radius                                     
   POMASS =   12.011; ZVAL   =    4.000    mass and valenz                      
   RCORE  =    1.500    outmost cutoff radius                                   
   RWIGS  =    1.630; RWIGS  =    0.863    wigner-seitz radius (au A)           
   ENMAX  =  413.992; ENMIN  =  310.494 eV                                      
   ICORE  =        2    local potential                                         
   LCOR   =        T    correct aug charges                                     
   LPAW   =        T    paw PP                                                  
   EAUG   =  644.873                                                            
   DEXC   =    0.000                                                            
   RMAX   =    1.529    core radius for proj-oper                               
   RAUG   =    1.300    factor for augmentation sphere                          
   RDEP   =    1.501    radius for radial grids                                 
   RDEPT  =    1.300    core radius for aug-charge                              
                                                                                
   Atomic configuration                                                         
    4 entries                                                                   
     n  l   j            E        occ.                                          
     1  0  0.50      -273.3789   2.0000                                         
     2  0  0.50       -13.7508   2.0000                                         
     2  1  0.50        -5.2854   2.0000                                         
     3  2  1.50        -5.4423   0.0000                                         
   Description                                                                  
     l       E           TYP  RCUT    TYP  RCUT                                 
     0    -13.7508457     23  1.200                                             
     0     95.2407820     23  1.200                                             
     1     -5.2854382     23  1.500                                             
     1    108.8466080     23  1.500                                             
     2     -5.4423304      7  1.500                                             
  local pseudopotential read in
  kinetic energy density of atom read in
  atomic valenz-charges read in
  non local Contribution for L=           0  read in
    real space projection operators read in
  non local Contribution for L=           0  read in
    real space projection operators read in
  non local Contribution for L=           1  read in
    real space projection operators read in
  non local Contribution for L=           1  read in
    real space projection operators read in
    PAW grid and wavefunctions read in
 
   number of l-projection  operators is LMAX  =           4
   number of lm-projection operators is LMMAX =           8
 
 POTCAR:    PAW Zn_sv_GW 01Dec2010                
   VRHFIN =Zn: d10 p2                                                           
   LEXCH  = PE                                                                  
   EATOM  =  6196.8528 eV,  455.4558 Ry                                         
                                                                                
   TITEL  = PAW Zn_sv_GW 01Dec2010                                              
   LULTRA =        F    use ultrasoft PP ?                                      
   IUNSCR =        1    unscreen: 0-lin 1-nonlin 2-no                           
   RPACOR =    1.000    partial core radius                                     
   POMASS =   65.390; ZVAL   =   20.000    mass and valenz                      
   RCORE  =    1.900    outmost cutoff radius                                   
   RWIGS  =    1.800; RWIGS  =    0.953    wigner-seitz radius (au A)           
   ENMAX  =  496.604; ENMIN  =  372.453 eV                                      
   RCLOC  =    1.206    cutoff for local pot                                    
   LCOR   =        T    correct aug charges                                     
   LPAW   =        T    paw PP                                                  
   EAUG   = 1245.670                                                            
   RMAX   =    1.937    core radius for proj-oper                               
   RAUG   =    1.300    factor for augmentation sphere                          
   RDEP   =    1.918    radius for radial grids                                 
   RDEPT  =    1.475    core radius for aug-charge                              
                                                                                
   Atomic configuration                                                         
    7 entries                                                                   
     n  l   j            E        occ.                                          
     1  0  0.50     -9515.7100   2.0000                                         
     2  0  0.50     -1148.2431   2.0000                                         
     2  1  1.50      -994.0046   6.0000                                         
     3  0  0.50      -119.9132   2.0000                                         
     3  1  1.50       -74.2898   6.0000                                         
     3  2  2.50        -2.2707  12.0000                                         
     4  3  2.50        -1.3606   0.0000                                         
   Description                                                                  
     l       E           TYP  RCUT    TYP  RCUT                                 
     0   -119.9132442     23  1.200                                             
     0   -121.2738268     23  1.200                                             
     0    136.0582600     23  1.200                                             
     1    -74.2898395     23  1.450                                             
     1    -75.6504221     23  1.450                                             
     1    136.0582600     23  1.450                                             
     2     -2.2707021     23  1.700                                             
     2      0.6802913     23  1.700                                             
     2    122.4524340     23  1.700                                             
     3     54.4233040     23  1.900                                             
     3    136.0582600     23  1.900                                             
  local pseudopotential read in
  partial core-charges read in
  partial kinetic energy density read in
  kinetic energy density of atom read in
  atomic valenz-charges read in
  non local Contribution for L=           0  read in
    real space projection operators read in
  non local Contribution for L=           0  read in
    real space projection operators read in
  non local Contribution for L=           0  read in
    real space projection operators read in
  non local Contribution for L=           1  read in
    real space projection operators read in
  non local Contribution for L=           1  read in
    real space projection operators read in
  non local Contribution for L=           1  read in
    real space projection operators read in
  non local Contribution for L=           2  read in
    real space projection operators read in
  non local Contribution for L=           2  read in
    real space projection operators read in
  non local Contribution for L=           2  read in
    real space projection operators read in
  non local Contribution for L=           3  read in
    real space projection operators read in
  non local Contribution for L=           3  read in
    real space projection operators read in
    PAW grid and wavefunctions read in
 
   number of l-projection  operators is LMAX  =          11
   number of lm-projection operators is LMMAX =          41
 
 POTCAR:    PAW N_GW 10Apr2007                    
   VRHFIN =N: s2p3                                                              
   LEXCH  = PE                                                                  
   EATOM  =   264.5486 eV,   19.4438 Ry                                         
                                                                                
   TITEL  = PAW N_GW 10Apr2007                                                  
   LULTRA =        F    use ultrasoft PP ?                                      
   IUNSCR =        0    unscreen: 0-lin 1-nonlin 2-no                           
   RPACOR =    0.000    partial core radius                                     
   POMASS =   14.001; ZVAL   =    5.000    mass and valenz                      
   RCORE  =    1.500    outmost cutoff radius                                   
   RWIGS  =    1.400; RWIGS  =    0.741    wigner-seitz radius (au A)           
   ENMAX  =  420.902; ENMIN  =  315.677 eV                                      
   ICORE  =        2    local potential                                         
   LCOR   =        T    correct aug charges                                     
   LPAW   =        T    paw PP                                                  
   EAUG   =  904.640                                                            
   DEXC   =    0.000                                                            
   RMAX   =    1.529    core radius for proj-oper                               
   RAUG   =    1.300    factor for augmentation sphere                          
   RDEP   =    1.514    radius for radial grids                                 
   RDEPT  =    1.100    core radius for aug-charge                              
                                                                                
   Atomic configuration                                                         
    4 entries                                                                   
     n  l   j            E        occ.                                          
     1  0  0.50      -384.7179   2.0000                                         
     2  0  0.50       -18.5828   2.0000                                         
     2  1  0.50        -7.0898   3.0000                                         
     3  2  1.50        -8.1635   0.0000                                         
   Description                                                                  
     l       E           TYP  RCUT    TYP  RCUT                                 
     0    -18.5828120     23  1.300                                             
     0     81.6349560     23  1.300                                             
     1     -7.0897854     23  1.500                                             
     1     81.6349560     23  1.500                                             
     2     -8.1634956      7  1.500                                             
  local pseudopotential read in
  kinetic energy density of atom read in
  atomic valenz-charges read in
  non local Contribution for L=           0  read in
    real space projection operators read in
  non local Contribution for L=           0  read in
    real space projection operators read in
  non local Contribution for L=           1  read in
    real space projection operators read in
  non local Contribution for L=           1  read in
    real space projection operators read in
    PAW grid and wavefunctions read in
 
   number of l-projection  operators is LMAX  =           4
   number of lm-projection operators is LMMAX =           8
 
 Optimization of the real space projectors (new method)

 maximal supplied QI-value         = 34.20
 optimisation between [QCUT,QGAM] = [ 14.37, 28.73] = [ 57.79,231.16] Ry 
 Optimized for a Real-space Cutoff    1.07 Angstroem

   l    n(q)    QCUT    max X(q) W(low)/X(q) W(high)/X(q)  e(spline) 
   0      9    14.366    26.161    0.12E-03    0.14E-03    0.42E-06
   0      9    14.366    15.773    0.11E-03    0.13E-03    0.41E-06
   1      9    14.366     3.275    0.26E-04    0.15E-03    0.38E-06
   1      9    14.366     2.453    0.10E-04    0.11E-03    0.34E-06
   2      8    14.366     7.471    0.20E-03    0.26E-03    0.15E-06
 Optimization of the real space projectors (new method)

 maximal supplied QI-value         = 25.13
 optimisation between [QCUT,QGAM] = [ 14.33, 28.90] = [ 57.47,233.94] Ry 
 Optimized for a Real-space Cutoff    0.87 Angstroem

   l    n(q)    QCUT    max X(q) W(low)/X(q) W(high)/X(q)  e(spline) 
   0      7    14.326     6.744    0.10E-03    0.38E-03    0.59E-07
   0      7    14.326     2.789    0.17E-03    0.49E-03    0.74E-07
   1      7    14.326     2.977    0.95E-04    0.24E-03    0.23E-07
   1      7    14.326     2.397    0.13E-03    0.39E-03    0.68E-07
 Optimization of the real space projectors (new method)

 maximal supplied QI-value         = 19.84
 optimisation between [QCUT,QGAM] = [ 14.48, 28.97] = [ 58.75,235.01] Ry 
 Optimized for a Real-space Cutoff    1.27 Angstroem

   l    n(q)    QCUT    max X(q) W(low)/X(q) W(high)/X(q)  e(spline) 
   0     11    14.485   200.400    0.18E-04    0.37E-04    0.17E-05
   0     11    14.485   210.010    0.18E-04    0.37E-04    0.17E-05
   0     11    14.485     4.568    0.70E-05    0.29E-04    0.15E-05
   1     11    14.485    51.705    0.12E-03    0.10E-03    0.13E-05
   1     11    14.485    56.882    0.12E-03    0.10E-03    0.13E-05
   1     11    14.485     4.141    0.82E-04    0.73E-04    0.93E-06
   2     10    14.485    25.421    0.17E-03    0.19E-03    0.97E-06
   2     10    14.485    15.377    0.20E-03    0.21E-03    0.11E-05
   2     10    14.485     7.263    0.91E-04    0.13E-03    0.61E-06
   3     10    14.485     6.291    0.34E-04    0.63E-04    0.32E-06
   3     10    14.485     3.121    0.39E-04    0.41E-04    0.26E-06
 Optimization of the real space projectors (new method)

 maximal supplied QI-value         = 25.13
 optimisation between [QCUT,QGAM] = [ 14.33, 28.90] = [ 57.47,233.94] Ry 
 Optimized for a Real-space Cutoff    0.89 Angstroem

   l    n(q)    QCUT    max X(q) W(low)/X(q) W(high)/X(q)  e(spline) 
   0      8    14.326     6.172    0.66E-04    0.15E-03    0.40E-07
   0      8    14.326     2.301    0.11E-03    0.31E-03    0.75E-07
   1      7    14.326     2.725    0.63E-04    0.18E-03    0.30E-07
   1      7    14.326     2.784    0.65E-04    0.26E-03    0.74E-07
  PAW H_GW 21Apr2008                    :
 energy of atom  1       EATOM=  -12.4884
 kinetic energy error for atom=    0.0003 (will be added to EATOM!!)
  PAW C_GW 28Sep2005                    :
 energy of atom  2       EATOM= -147.1560
 kinetic energy error for atom=    0.0016 (will be added to EATOM!!)
  PAW Zn_sv_GW 01Dec2010                :
 energy of atom  3       EATOM=-6196.8528
 kinetic energy error for atom=    0.0600 (will be added to EATOM!!)
  PAW N_GW 10Apr2007                    :
 energy of atom  4       EATOM= -264.5486
 kinetic energy error for atom=    0.0027 (will be added to EATOM!!)
 
 
 POSCAR: Molecule from CHK                       
  positions in direct lattice
  velocities in cartesian coordinates
 exchange correlation table for  LEXCH =        8
   RHO(1)=    0.500       N(1)  =     2000
   RHO(2)=  100.500       N(2)  =     4000
 


--------------------------------------------------------------------------------------------------------


 ion  position               nearest neighbor table
   1  0.384  0.855  0.731- 145 1.08
   2  0.616  0.145  0.731- 146 1.08
   3  0.616  0.855  0.269- 147 1.08
   4  0.384  0.145  0.269- 148 1.08
   5  0.731  0.384  0.855- 149 1.08
   6  0.731  0.616  0.145- 150 1.08
   7  0.269  0.616  0.855- 151 1.08
   8  0.269  0.384  0.145- 152 1.08
   9  0.855  0.731  0.384- 153 1.08
  10  0.145  0.731  0.616- 154 1.08
  11  0.855  0.269  0.616- 155 1.08
  12  0.145  0.269  0.384- 156 1.08
  13  0.855  0.384  0.731- 157 1.08
  14  0.145  0.616  0.731- 158 1.08
  15  0.855  0.616  0.269- 159 1.08
  16  0.145  0.384  0.269- 160 1.08
  17  0.384  0.731  0.855- 161 1.08
  18  0.616  0.731  0.145- 162 1.08
  19  0.616  0.269  0.855- 163 1.08
  20  0.384  0.269  0.145- 164 1.08
  21  0.731  0.855  0.384- 165 1.08
  22  0.731  0.145  0.616- 166 1.08
  23  0.269  0.855  0.616- 167 1.08
  24  0.269  0.145  0.384- 168 1.08
  25  0.884  0.355  0.231- 169 1.08
  26  0.116  0.645  0.231- 170 1.08
  27  0.116  0.355  0.769- 171 1.08
  28  0.884  0.645  0.769- 172 1.08
  29  0.231  0.884  0.355- 173 1.08
  30  0.231  0.116  0.645- 174 1.08
  31  0.769  0.116  0.355- 175 1.08
  32  0.769  0.884  0.645- 176 1.08
  33  0.355  0.231  0.884- 177 1.08
  34  0.645  0.231  0.116- 178 1.08
  35  0.355  0.769  0.116- 179 1.08
  36  0.645  0.769  0.884- 180 1.08
  37  0.355  0.884  0.231- 181 1.08
  38  0.645  0.116  0.231- 182 1.08
  39  0.355  0.116  0.769- 183 1.08
  40  0.645  0.884  0.769- 184 1.08
  41  0.884  0.231  0.355- 185 1.08
  42  0.116  0.231  0.645- 186 1.08
  43  0.116  0.769  0.355- 187 1.08
  44  0.884  0.769  0.645- 188 1.08
  45  0.231  0.355  0.884- 189 1.08
  46  0.231  0.645  0.116- 190 1.08
  47  0.769  0.355  0.116- 191 1.08
  48  0.769  0.645  0.884- 192 1.08
  49  0.375  0.135  0.625- 193 1.10
  50  0.606  0.906  0.532- 194 1.10
  51  0.625  0.135  0.375- 195 1.10
  52  0.375  0.865  0.375- 196 1.10
  53  0.532  0.394  0.094- 197 1.10
  54  0.625  0.625  0.865- 198 1.10
  55  0.468  0.606  0.094- 199 1.10
  56  0.375  0.375  0.865- 200 1.10
  57  0.094  0.532  0.394- 201 1.10
  58  0.865  0.625  0.625- 202 1.10
  59  0.094  0.468  0.606- 203 1.10
  60  0.865  0.375  0.375- 204 1.10
  61  0.135  0.375  0.625- 203 1.10
  62  0.906  0.606  0.532- 202 1.10
  63  0.135  0.625  0.375- 201 1.10
  64  0.906  0.394  0.468- 204 1.10
  65  0.375  0.625  0.135- 199 1.10
  66  0.606  0.532  0.906- 198 1.10
  67  0.625  0.375  0.135- 197 1.10
  68  0.394  0.468  0.906- 200 1.10
  69  0.532  0.094  0.394- 195 1.10
  70  0.625  0.865  0.625- 194 1.10
  71  0.468  0.094  0.606- 193 1.10
  72  0.468  0.906  0.394- 196 1.10
  73  0.875  0.635  0.125- 205 1.10
  74  0.106  0.406  0.032- 206 1.10
  75  0.125  0.635  0.875- 207 1.10
  76  0.894  0.406  0.968- 208 1.10
  77  0.032  0.894  0.594- 209 1.10
  78  0.125  0.125  0.365- 210 1.10
  79  0.875  0.125  0.635- 211 1.10
  80  0.968  0.894  0.406- 212 1.10
  81  0.635  0.125  0.875- 213 1.10
  82  0.406  0.032  0.106- 214 1.10
  83  0.594  0.968  0.106- 215 1.10
  84  0.406  0.968  0.894- 216 1.10
  85  0.635  0.875  0.125- 215 1.10
  86  0.365  0.125  0.125- 214 1.10
  87  0.594  0.106  0.968- 213 1.10
  88  0.365  0.875  0.875- 216 1.10
  89  0.894  0.032  0.594- 211 1.10
  90  0.106  0.032  0.406- 210 1.10
  91  0.125  0.875  0.635- 209 1.10
  92  0.875  0.875  0.365- 212 1.10
  93  0.032  0.594  0.894- 207 1.10
  94  0.125  0.365  0.125- 206 1.10
  95  0.968  0.594  0.106- 205 1.10
  96  0.875  0.365  0.875- 208 1.10
  97  0.394  0.094  0.532- 193 1.10
  98  0.532  0.906  0.606- 194 1.10
  99  0.606  0.094  0.468- 195 1.10
 100  0.394  0.906  0.468- 196 1.10
 101  0.606  0.468  0.094- 197 1.10
 102  0.532  0.606  0.906- 198 1.10
 103  0.394  0.532  0.094- 199 1.10
 104  0.468  0.394  0.906- 200 1.10
 105  0.094  0.606  0.468- 201 1.10
 106  0.906  0.532  0.606- 202 1.10
 107  0.094  0.394  0.532- 203 1.10
 108  0.906  0.468  0.394- 204 1.10
 109  0.894  0.594  0.032- 205 1.10
 110  0.032  0.406  0.106- 206 1.10
 111  0.106  0.594  0.968- 207 1.10
 112  0.968  0.406  0.894- 208 1.10
 113  0.106  0.968  0.594- 209 1.10
 114  0.032  0.106  0.406- 210 1.10
 115  0.968  0.106  0.594- 211 1.10
 116  0.894  0.968  0.406- 212 1.10
 117  0.594  0.032  0.894- 213 1.10
 118  0.406  0.106  0.032- 214 1.10
 119  0.594  0.894  0.032- 215 1.10
 120  0.406  0.894  0.968- 216 1.10
 121  0.377  0.009  0.623- 251 1.35 229 1.35 193 1.49
 122  0.623  0.991  0.623- 250 1.35 230 1.35 194 1.49
 123  0.623  0.009  0.377- 231 1.35 249 1.35 195 1.49
 124  0.377  0.991  0.377- 232 1.35 252 1.35 196 1.49
 125  0.623  0.377  0.009- 247 1.35 233 1.35 197 1.49
 126  0.623  0.623  0.991- 246 1.35 234 1.35 198 1.49
 127  0.377  0.623  0.009- 235 1.35 245 1.35 199 1.49
 128  0.377  0.377  0.991- 236 1.35 248 1.35 200 1.49
 129  0.009  0.623  0.377- 243 1.35 237 1.35 201 1.49
 130  0.991  0.623  0.623- 238 1.35 242 1.35 202 1.49
 131  0.009  0.377  0.623- 239 1.35 241 1.35 203 1.49
 132  0.991  0.377  0.377- 244 1.35 240 1.35 204 1.49
 133  0.877  0.509  0.123- 275 1.35 253 1.35 205 1.49
 134  0.123  0.491  0.123- 274 1.35 254 1.35 206 1.49
 135  0.123  0.509  0.877- 255 1.35 273 1.35 207 1.49
 136  0.877  0.491  0.877- 256 1.35 276 1.35 208 1.49
 137  0.123  0.877  0.509- 271 1.35 257 1.35 209 1.49
 138  0.123  0.123  0.491- 270 1.35 258 1.35 210 1.49
 139  0.877  0.123  0.509- 259 1.35 269 1.35 211 1.49
 140  0.877  0.877  0.491- 260 1.35 272 1.35 212 1.49
 141  0.509  0.123  0.877- 267 1.35 261 1.35 213 1.49
 142  0.491  0.123  0.123- 262 1.35 266 1.35 214 1.49
 143  0.509  0.877  0.123- 263 1.35 265 1.35 215 1.49
 144  0.491  0.877  0.877- 268 1.35 264 1.35 216 1.49
 145  0.369  0.899  0.688-   1 1.08 167 1.37 229 1.38
 146  0.631  0.101  0.688-   2 1.08 166 1.37 230 1.38
 147  0.631  0.899  0.312-   3 1.08 165 1.37 231 1.38
 148  0.369  0.101  0.312-   4 1.08 168 1.37 232 1.38
 149  0.688  0.369  0.899-   5 1.08 163 1.37 233 1.38
 150  0.688  0.631  0.101-   6 1.08 162 1.37 234 1.38
 151  0.312  0.631  0.899-   7 1.08 161 1.37 235 1.38
 152  0.312  0.369  0.101-   8 1.08 164 1.37 236 1.38
 153  0.899  0.688  0.369-   9 1.08 159 1.37 237 1.38
 154  0.101  0.688  0.631-  10 1.08 158 1.37 238 1.38
 155  0.899  0.312  0.631-  11 1.08 157 1.37 239 1.38
 156  0.101  0.312  0.369-  12 1.08 160 1.37 240 1.38
 157  0.899  0.369  0.688-  13 1.08 155 1.37 241 1.38
 158  0.101  0.631  0.688-  14 1.08 154 1.37 242 1.38
 159  0.899  0.631  0.312-  15 1.08 153 1.37 243 1.38
 160  0.101  0.369  0.312-  16 1.08 156 1.37 244 1.38
 161  0.369  0.688  0.899-  17 1.08 151 1.37 245 1.38
 162  0.631  0.688  0.101-  18 1.08 150 1.37 246 1.38
 163  0.631  0.312  0.899-  19 1.08 149 1.37 247 1.38
 164  0.369  0.312  0.101-  20 1.08 152 1.37 248 1.38
 165  0.688  0.899  0.369-  21 1.08 147 1.37 249 1.38
 166  0.688  0.101  0.631-  22 1.08 146 1.37 250 1.38
 167  0.312  0.899  0.631-  23 1.08 145 1.37 251 1.38
 168  0.312  0.101  0.369-  24 1.08 148 1.37 252 1.38
 169  0.869  0.399  0.188-  25 1.08 191 1.37 253 1.38
 170  0.131  0.601  0.188-  26 1.08 190 1.37 254 1.38
 171  0.131  0.399  0.812-  27 1.08 189 1.37 255 1.38
 172  0.869  0.601  0.812-  28 1.08 192 1.37 256 1.38
 173  0.188  0.869  0.399-  29 1.08 187 1.37 257 1.38
 174  0.188  0.131  0.601-  30 1.08 186 1.37 258 1.38
 175  0.812  0.131  0.399-  31 1.08 185 1.37 259 1.38
 176  0.812  0.869  0.601-  32 1.08 188 1.37 260 1.38
 177  0.399  0.188  0.869-  33 1.08 183 1.37 261 1.38
 178  0.601  0.188  0.131-  34 1.08 182 1.37 262 1.38
 179  0.399  0.812  0.131-  35 1.08 181 1.37 263 1.38
 180  0.601  0.812  0.869-  36 1.08 184 1.37 264 1.38
 181  0.399  0.869  0.188-  37 1.08 179 1.37 265 1.38
 182  0.601  0.131  0.188-  38 1.08 178 1.37 266 1.38
 183  0.399  0.131  0.812-  39 1.08 177 1.37 267 1.38
 184  0.601  0.869  0.812-  40 1.08 180 1.37 268 1.38
 185  0.869  0.188  0.399-  41 1.08 175 1.37 269 1.38
 186  0.131  0.188  0.601-  42 1.08 174 1.37 270 1.38
 187  0.131  0.812  0.399-  43 1.08 173 1.37 271 1.38
 188  0.869  0.812  0.601-  44 1.08 176 1.37 272 1.38
 189  0.188  0.399  0.869-  45 1.08 171 1.37 273 1.38
 190  0.188  0.601  0.131-  46 1.08 170 1.37 274 1.38
 191  0.812  0.399  0.131-  47 1.08 169 1.37 275 1.38
 192  0.812  0.601  0.869-  48 1.08 172 1.37 276 1.38
 193  0.405  0.087  0.595-  71 1.10  97 1.10  49 1.10 121 1.49
 194  0.595  0.913  0.595-  98 1.10  50 1.10  70 1.10 122 1.49
 195  0.595  0.087  0.405-  99 1.10  69 1.10  51 1.10 123 1.49
 196  0.405  0.913  0.405-  72 1.10 100 1.10  52 1.10 124 1.49
 197  0.595  0.405  0.087- 101 1.10  53 1.10  67 1.10 125 1.49
 198  0.595  0.595  0.913-  66 1.10 102 1.10  54 1.10 126 1.49
 199  0.405  0.595  0.087-  55 1.10 103 1.10  65 1.10 127 1.49
 200  0.405  0.405  0.913-  68 1.10 104 1.10  56 1.10 128 1.49
 201  0.087  0.595  0.405- 105 1.10  57 1.10  63 1.10 129 1.49
 202  0.913  0.595  0.595-  62 1.10 106 1.10  58 1.10 130 1.49
 203  0.087  0.405  0.595-  59 1.10 107 1.10  61 1.10 131 1.49
 204  0.913  0.405  0.405-  64 1.10 108 1.10  60 1.10 132 1.49
 205  0.905  0.587  0.095-  95 1.10 109 1.10  73 1.10 133 1.49
 206  0.095  0.413  0.095- 110 1.10  74 1.10  94 1.10 134 1.49
 207  0.095  0.587  0.905- 111 1.10  93 1.10  75 1.10 135 1.49
 208  0.905  0.413  0.905- 112 1.10  76 1.10  96 1.10 136 1.49
 209  0.095  0.905  0.587- 113 1.10  77 1.10  91 1.10 137 1.49
 210  0.095  0.095  0.413-  90 1.10 114 1.10  78 1.10 138 1.49
 211  0.905  0.095  0.587- 115 1.10  89 1.10  79 1.10 139 1.49
 212  0.905  0.905  0.413- 116 1.10  80 1.10  92 1.10 140 1.49
 213  0.587  0.095  0.905-  87 1.10 117 1.10  81 1.10 141 1.49
 214  0.413  0.095  0.095- 118 1.10  82 1.10  86 1.10 142 1.49
 215  0.587  0.905  0.095-  83 1.10 119 1.10  85 1.10 143 1.49
 216  0.413  0.905  0.905- 120 1.10  84 1.10  88 1.10 144 1.49
 217  0.500  0.000  0.750- 230 2.00 268 2.00 229 2.00 267 2.00
 218  0.500  0.000  0.250- 266 2.00 265 2.00 232 2.00 231 2.00
 219  0.750  0.500  0.000- 234 2.00 276 2.00 233 2.00 275 2.00
 220  0.250  0.500  0.000- 274 2.00 273 2.00 236 2.00 235 2.00
 221  0.000  0.750  0.500- 272 2.00 238 2.00 237 2.00 271 2.00
 222  0.000  0.250  0.500- 270 2.00 269 2.00 240 2.00 239 2.00
 223  0.000  0.500  0.750- 256 2.00 242 2.00 241 2.00 255 2.00
 224  0.000  0.500  0.250- 254 2.00 253 2.00 244 2.00 243 2.00
 225  0.500  0.750  0.000- 264 2.00 246 2.00 245 2.00 263 2.00
 226  0.500  0.250  0.000- 262 2.00 261 2.00 248 2.00 247 2.00
 227  0.750  0.000  0.500- 260 2.00 250 2.00 249 2.00 259 2.00
 228  0.250  0.000  0.500- 258 2.00 257 2.00 252 2.00 251 2.00
 229  0.410  0.968  0.683- 121 1.35 145 1.38 217 2.00
 230  0.590  0.032  0.683- 122 1.35 146 1.38 217 2.00
 231  0.590  0.968  0.317- 123 1.35 147 1.38 218 2.00
 232  0.410  0.032  0.317- 124 1.35 148 1.38 218 2.00
 233  0.683  0.410  0.968- 125 1.35 149 1.38 219 2.00
 234  0.683  0.590  0.032- 126 1.35 150 1.38 219 2.00
 235  0.317  0.590  0.968- 127 1.35 151 1.38 220 2.00
 236  0.317  0.410  0.032- 128 1.35 152 1.38 220 2.00
 237  0.968  0.683  0.410- 129 1.35 153 1.38 221 2.00
 238  0.032  0.683  0.590- 130 1.35 154 1.38 221 2.00
 239  0.968  0.317  0.590- 131 1.35 155 1.38 222 2.00
 240  0.032  0.317  0.410- 132 1.35 156 1.38 222 2.00
 241  0.968  0.410  0.683- 131 1.35 157 1.38 223 2.00
 242  0.032  0.590  0.683- 130 1.35 158 1.38 223 2.00
 243  0.968  0.590  0.317- 129 1.35 159 1.38 224 2.00
 244  0.032  0.410  0.317- 132 1.35 160 1.38 224 2.00
 245  0.410  0.683  0.968- 127 1.35 161 1.38 225 2.00
 246  0.590  0.683  0.032- 126 1.35 162 1.38 225 2.00
 247  0.590  0.317  0.968- 125 1.35 163 1.38 226 2.00
 248  0.410  0.317  0.032- 128 1.35 164 1.38 226 2.00
 249  0.683  0.968  0.410- 123 1.35 165 1.38 227 2.00
 250  0.683  0.032  0.590- 122 1.35 166 1.38 227 2.00
 251  0.317  0.968  0.590- 121 1.35 167 1.38 228 2.00
 252  0.317  0.032  0.410- 124 1.35 168 1.38 228 2.00
 253  0.910  0.468  0.183- 133 1.35 169 1.38 224 2.00
 254  0.090  0.532  0.183- 134 1.35 170 1.38 224 2.00
 255  0.090  0.468  0.817- 135 1.35 171 1.38 223 2.00
 256  0.910  0.532  0.817- 136 1.35 172 1.38 223 2.00
 257  0.183  0.910  0.468- 137 1.35 173 1.38 228 2.00
 258  0.183  0.090  0.532- 138 1.35 174 1.38 228 2.00
 259  0.817  0.090  0.468- 139 1.35 175 1.38 227 2.00
 260  0.817  0.910  0.532- 140 1.35 176 1.38 227 2.00
 261  0.468  0.183  0.910- 141 1.35 177 1.38 226 2.00
 262  0.532  0.183  0.090- 142 1.35 178 1.38 226 2.00
 263  0.468  0.817  0.090- 143 1.35 179 1.38 225 2.00
 264  0.532  0.817  0.910- 144 1.35 180 1.38 225 2.00
 265  0.468  0.910  0.183- 143 1.35 181 1.38 218 2.00
 266  0.532  0.090  0.183- 142 1.35 182 1.38 218 2.00
 267  0.468  0.090  0.817- 141 1.35 183 1.38 217 2.00
 268  0.532  0.910  0.817- 144 1.35 184 1.38 217 2.00
 269  0.910  0.183  0.468- 139 1.35 185 1.38 222 2.00
 270  0.090  0.183  0.532- 138 1.35 186 1.38 222 2.00
 271  0.090  0.817  0.468- 137 1.35 187 1.38 221 2.00
 272  0.910  0.817  0.532- 140 1.35 188 1.38 221 2.00
 273  0.183  0.468  0.910- 135 1.35 189 1.38 220 2.00
 274  0.183  0.532  0.090- 134 1.35 190 1.38 220 2.00
 275  0.817  0.468  0.090- 133 1.35 191 1.38 219 2.00
 276  0.817  0.532  0.910- 136 1.35 192 1.38 219 2.00
 

IMPORTANT INFORMATION: All symmetrisations will be switched off!
NOSYMM: (Re-)initialisation of all symmetry stuff for point group C_1.

 
 
 KPOINTS: K-Points                                

Automatic generation of k-mesh.
Space group operators:
 irot       det(A)        alpha          n_x          n_y          n_z        tau_x        tau_y        tau_z
    1     1.000000     0.000001     1.000000     0.000000     0.000000     0.000000     0.000000     0.000000
 
 Subroutine IBZKPT returns following result:
 ===========================================
 
 Found      1 irreducible k-points:
 
 Following reciprocal coordinates:
            Coordinates               Weight
  0.000000  0.000000  0.000000      1.000000
 
 Following cartesian coordinates:
            Coordinates               Weight
  0.000000  0.000000  0.000000      1.000000
 


--------------------------------------------------------------------------------------------------------




 Dimension of arrays:
   k-points           NKPTS =      1   k-points in BZ     NKDIM =      1   number of bands    NBANDS=    631
   number of dos      NEDOS =    301   number of ions     NIONS =    276
   non local maximal  LDIM  =     11   non local SUM 2l+1 LMDIM =     41
   total plane-waves  NPLWV = ******
   max r-space proj   IRMAX =   7168   max aug-charges    IRDMAX=  13978
   dimension x,y,z NGX =   160 NGY =  160 NGZ =  160
   dimension x,y,z NGXF=   320 NGYF=  320 NGZF=  320
   support grid    NGXF=   320 NGYF=  320 NGZF=  320
   ions per type =             120  96  12  48
 NGX,Y,Z   is equivalent  to a cutoff of  15.58, 15.58, 15.58 a.u.
 NGXF,Y,Z  is equivalent  to a cutoff of  31.15, 31.15, 31.15 a.u.


 I would recommend the setting:
   dimension x,y,z NGX =   158 NGY =  158 NGZ =  158
 SYSTEM =  ZIF8                                    
 POSCAR =  Molecule from CHK                       

 Startparameter for this run:
   NWRITE =      2    write-flag & timer
   PREC   = accura    normal or accurate (medium, high low for compatibility)
   ISTART =      0    job   : 0-new  1-cont  2-samecut
   ICHARG =      2    charge: 1-file 2-atom 10-const
   ISPIN  =      1    spin polarized calculation?
   LNONCOLLINEAR =      F non collinear calculations
   LSORBIT =      F    spin-orbit coupling
   INIWAV =      1    electr: 0-lowe 1-rand  2-diag
   LASPH  =      T    aspherical Exc in radial PAW
   METAGGA=      F    non-selfconsistent MetaGGA calc.

 Electronic Relaxation 1
   ENCUT  =  800.0 eV  58.80 Ry    7.67 a.u.  39.38 39.38 39.38*2*pi/ulx,y,z
   ENINI  =  800.0     initial cutoff
   ENAUG  = 1245.7 eV  augmentation charge cutoff
   NELM   =    200;   NELMIN=  8; NELMDL= -5     # of ELM steps 
   EDIFF  = 0.1E-07   stopping-criterion for ELM
   LREAL  =      T    real-space projection
   NLSPLINE    = F    spline interpolate recip. space projectors
   LCOMPAT=      F    compatible to vasp.4.4
   GGA_COMPAT  = T    GGA compatible to vasp.4.4-vasp.4.6
   LMAXPAW     = -100 max onsite density
   LMAXMIX     =    2 max onsite mixed and CHGCAR
   VOSKOWN=      0    Vosko Wilk Nusair interpolation
   ROPT   =   -0.00025  -0.00025  -0.00025  -0.00025
 Ionic relaxation
   EDIFFG = 0.1E-06   stopping-criterion for IOM
   NSW    =    500    number of steps for IOM
   NBLOCK =      1;   KBLOCK =    500    inner block; outer block 
   IBRION =      2    ionic relax: 0-MD 1-quasi-New 2-CG
   NFREE  =      1    steps in history (QN), initial steepest desc. (CG)
   ISIF   =      4    stress and relaxation
   IWAVPR =     11    prediction:  0-non 1-charg 2-wave 3-comb
   ISYM   =      0    0-nonsym 1-usesym 2-fastsym
   LCORR  =      T    Harris-Foulkes like correction to forces

   POTIM  = 0.5000    time-step for ionic-motion
   TEIN   =    0.0    initial temperature
   TEBEG  =    0.0;   TEEND  =   0.0 temperature during run
   SMASS  =  -3.00    Nose mass-parameter (am)
   estimated Nose-frequenzy (Omega)   =  0.10E-29 period in steps =****** mass=  -0.666E-26a.u.
   SCALEE = 1.0000    scale energy and forces
   NPACO  =    256;   APACO  = 16.0  distance and # of slots for P.C.
   PSTRESS=    0.0 pullay stress

  Mass of Ions in am
   POMASS =   1.00 12.01 65.39 14.00
  Ionic Valenz
   ZVAL   =   1.00  4.00 20.00  5.00
  Atomic Wigner-Seitz radii
   RWIGS  =  -1.00 -1.00 -1.00 -1.00
  virtual crystal weights 
   VCA    =   1.00  1.00  1.00  1.00
   NELECT =     984.0000    total number of electrons
   NUPDOWN=      -1.0000    fix difference up-down

 DOS related values:
   EMIN   =  10.00;   EMAX   =-10.00  energy-range for DOS
   EFERMI =   0.00
   ISMEAR =     0;   SIGMA  =   0.05  broadening in eV -4-tet -1-fermi 0-gaus

 Electronic relaxation 2 (details)
   IALGO  =     38    algorithm
   LDIAG  =      T    sub-space diagonalisation (order eigenvalues)
   LSUBROT=      F    optimize rotation matrix (better conditioning)
   TURBO    =      0    0=normal 1=particle mesh
   IRESTART =      0    0=no restart 2=restart with 2 vectors
   NREBOOT  =      0    no. of reboots
   NMIN     =      0    reboot dimension
   EREF     =   0.00    reference energy to select bands
   IMIX   =      4    mixing-type and parameters
     AMIX     =   0.40;   BMIX     =  1.00
     AMIX_MAG =   1.60;   BMIX_MAG =  1.00
     AMIN     =   0.10
     WC   =   100.;   INIMIX=   1;  MIXPRE=   1;  MAXMIX= -45

 Intra band minimization:
   WEIMIN = 0.0010     energy-eigenvalue tresh-hold
   EBREAK =  0.40E-11  absolut break condition
   DEPER  =   0.30     relativ break condition  

   TIME   =   0.40     timestep for ELM

  volume/ion in A,a.u.               =      18.04       121.77
  Fermi-wavevector in a.u.,A,eV,Ry     =   0.953494  1.801842 12.369746  0.909151
  Thomas-Fermi vector in A             =   2.082154
 
 Write flags
   LWAVE  =      F    write WAVECAR
   LCHARG =      T    write CHGCAR
   LVTOT  =      F    write LOCPOT, total local potential
   LVHAR  =      F    write LOCPOT, Hartree potential only
   LELF   =      F    write electronic localiz. function (ELF)
   LORBIT =      0    0 simple, 1 ext, 2 COOP (PROOUT)


 Dipole corrections
   LMONO  =      F    monopole corrections only (constant potential shift)
   LDIPOL =      F    correct potential (dipole corrections)
   IDIPOL =      0    1-x, 2-y, 3-z, 4-all directions 
   EPSILON=  1.0000000 bulk dielectric constant

 Exchange correlation treatment:
   GGA     =    --    GGA type
   LEXCH   =     8    internal setting for exchange type
   VOSKOWN=      0    Vosko Wilk Nusair interpolation
   LHFCALC =     F    Hartree Fock is set to
   LHFONE  =     F    Hartree Fock one center treatment
   AEXX    =    0.0000 exact exchange contribution

 Linear response parameters
   LEPSILON=     F    determine dielectric tensor
   LRPA    =     F    only Hartree local field effects (RPA)
   LNABLA  =     F    use nabla operator in PAW spheres
   LVEL    =     F    velocity operator in full k-point grid
   LINTERFAST=   F  fast interpolation
   KINTER  =     0    interpolate to denser k-point grid
   CSHIFT  =0.1000    complex shift for real part using Kramers Kronig
   OMEGAMAX=  -1.0    maximum frequency
   DEG_THRESHOLD= 0.2000000E-02 threshold for treating states as degnerate
   RTIME   =    0.100 relaxation time in fs

 Orbital magnetization related:
   ORBITALMAG=     F  switch on orbital magnetization
   LCHIMAG   =     F  perturbation theory with respect to B field
   DQ        =  0.001000  dq finite difference perturbation B field



--------------------------------------------------------------------------------------------------------


 conjugate gradient relaxation of ions
 charge density and potential will be updated during run
 non-spin polarized calculation
 Variant of blocked Davidson
 Davidson routine will perform the subspace rotation
 perform sub-space diagonalisation
    after iterative eigenvector-optimisation
 modified Broyden-mixing scheme, WC =      100.0
 initial mixing is a Kerker type mixing with AMIX =  0.4000 and BMIX =      1.0000
 Hartree-type preconditioning will be used
 using additional bands          139
 real space projection scheme for non local part
 use partial core corrections
 calculate Harris-corrections to forces 
   (improved forces if not selfconsistent)
 use gradient corrections 
 use of overlap-Matrix (Vanderbilt PP)
 Gauss-broadening in eV      SIGMA  =   0.05


--------------------------------------------------------------------------------------------------------


  energy-cutoff  :      800.00
  volume of cell :     4980.42
      direct lattice vectors                 reciprocal lattice vectors
    17.077406614  0.000029888  0.000042978     0.058556901 -0.000000105 -0.000000150
     0.000030681 17.077407053  0.000035519    -0.000000102  0.058556899 -0.000000123
     0.000043706  0.000035755 17.077407049    -0.000000147 -0.000000122  0.058556899

  length of vectors
    17.077406614 17.077407053 17.077407049     0.058556901  0.058556899  0.058556899


 
 k-points in units of 2pi/SCALE and weight: K-Points                                
   0.00000000  0.00000000  0.00000000       1.000
 
 k-points in reciprocal lattice and weights: K-Points                                
   0.00000000  0.00000000  0.00000000       1.000
 
 position of ions in fractional coordinates (direct lattice) 
   0.38374236  0.85485685  0.73126892
   0.61625695  0.14514688  0.73125900
   0.61626714  0.85485258  0.26873990
   0.38373800  0.14514330  0.26873405
   0.73126898  0.38374280  0.85485695
   0.73125885  0.61625711  0.14514698
   0.26874023  0.61626717  0.85485242
   0.26873366  0.38373759  0.14514304
   0.85485663  0.73126846  0.38374297
   0.14514681  0.73125917  0.61625669
   0.85485273  0.26873966  0.61626755
   0.14514324  0.26873398  0.38373743
   0.85485698  0.38374253  0.73126909
   0.14514705  0.61625716  0.73125880
   0.85485248  0.61626701  0.26874016
   0.14514306  0.38373771  0.26873366
   0.38374308  0.73126871  0.85485682
   0.61625697  0.73125906  0.14514685
   0.61626742  0.26873988  0.85485260
   0.38373738  0.26873383  0.14514312
   0.73126865  0.85485673  0.38374261
   0.73125910  0.14514687  0.61625680
   0.26873952  0.85485280  0.61626752
   0.26873418  0.14514335  0.38373794
   0.88374232  0.35485678  0.23126881
   0.11625706  0.64514714  0.23125875
   0.11626730  0.35485251  0.76873998
   0.88373797  0.64514345  0.76873426
   0.23126875  0.88374283  0.35485679
   0.23125870  0.11625722  0.64514716
   0.76874039  0.11626721  0.35485226
   0.76873370  0.88373749  0.64514310
   0.35485649  0.23126829  0.88374298
   0.64514699  0.23125893  0.11625682
   0.35485263  0.76873979  0.11626758
   0.64514335  0.76873412  0.88373731
   0.35485678  0.88374242  0.23126888
   0.64514711  0.11625714  0.23125868
   0.35485228  0.11626703  0.76874041
   0.64514314  0.88373761  0.76873372
   0.88374301  0.23126851  0.35485661
   0.11625699  0.23125896  0.64514697
   0.11626740  0.76874014  0.35485240
   0.88373721  0.76873391  0.64514325
   0.23126853  0.35485662  0.88374244
   0.23125897  0.64514698  0.11625679
   0.76873971  0.35485265  0.11626764
   0.76873437  0.64514349  0.88373788
   0.37482587  0.13516233  0.62516618
   0.60597859  0.90648329  0.53215481
   0.62516621  0.13516225  0.37482568
   0.37483324  0.86483419  0.37483348
   0.53215406  0.39401633  0.09351464
   0.62516874  0.62516819  0.86483759
   0.46784138  0.60597709  0.09351829
   0.37483346  0.37483305  0.86483415
   0.09351484  0.53215438  0.39401609
   0.86483750  0.62516820  0.62516860
   0.09351835  0.46784152  0.60597706
   0.86483416  0.37483308  0.37483374
   0.13516248  0.37482615  0.62516574
   0.90648302  0.60597867  0.53215510
   0.13516218  0.62516608  0.37482551
   0.90648195  0.39402196  0.46784540
   0.37482586  0.62516569  0.13516232
   0.60597888  0.53215498  0.90648336
   0.62516542  0.37482574  0.13516242
   0.39402195  0.46784509  0.90648142
   0.53215446  0.09351502  0.39401611
   0.62516799  0.86483736  0.62516813
   0.46784132  0.09351853  0.60597737
   0.46784520  0.90648172  0.39402200
   0.87482589  0.63516223  0.12516618
   0.10597877  0.40648347  0.03215487
   0.12516637  0.63516208  0.87482553
   0.89402171  0.40648208  0.96784531
   0.03215408  0.89401618  0.59351442
   0.12516872  0.12516843  0.36483774
   0.87482552  0.12516579  0.63516214
   0.96784522  0.89402160  0.40648178
   0.63516208  0.12516618  0.87482561
   0.40648346  0.03215492  0.10597907
   0.59351827  0.96784138  0.10597739
   0.40648192  0.96784518  0.89402200
   0.63516227  0.87482588  0.12516592
   0.36483768  0.12516819  0.12516887
   0.59351824  0.10597733  0.96784116
   0.36483432  0.87483311  0.87483342
   0.89401610  0.03215428  0.59351445
   0.10597904  0.03215505  0.40648348
   0.12516552  0.87482575  0.63516230
   0.87483327  0.87483290  0.36483432
   0.03215456  0.59351484  0.89401609
   0.12516835  0.36483757  0.12516824
   0.96784132  0.59351825  0.10597740
   0.87483314  0.36483435  0.87483340
   0.39401621  0.09351505  0.53215439
   0.53215480  0.90648325  0.60597857
   0.60597742  0.09351856  0.46784125
   0.39402168  0.90648183  0.46784534
   0.60597709  0.46784129  0.09351862
   0.53215513  0.60597886  0.90648309
   0.39401627  0.53215422  0.09351466
   0.46784530  0.39402165  0.90648159
   0.09351862  0.60597749  0.46784113
   0.90648322  0.53215490  0.60597902
   0.09351490  0.39401643  0.53215419
   0.90648167  0.46784520  0.39402186
   0.89401620  0.59351477  0.03215438
   0.03215495  0.40648333  0.10597886
   0.10597773  0.59351838  0.96784116
   0.96784516  0.40648188  0.89402178
   0.10597703  0.96784130  0.59351837
   0.03215513  0.10597894  0.40648337
   0.96784120  0.10597738  0.59351825
   0.89402167  0.96784503  0.40648151
   0.59351466  0.03215441  0.89401588
   0.40648309  0.10597886  0.03215524
   0.59351477  0.89401633  0.03215431
   0.40648197  0.89402153  0.96784528
   0.37739252  0.00867100  0.62260786
   0.62260467  0.99132973  0.62260466
   0.62260786  0.00867097  0.37739251
   0.37739435  0.99132879  0.37739441
   0.62260780  0.37739252  0.00867104
   0.62260472  0.62260470  0.99132980
   0.37739254  0.62260782  0.00867099
   0.37739440  0.37739436  0.99132873
   0.00867097  0.62260784  0.37739250
   0.99132977  0.62260466  0.62260472
   0.00867105  0.37739256  0.62260783
   0.99132876  0.37739435  0.37739440
   0.87739249  0.50867095  0.12260789
   0.12260471  0.49132978  0.12260471
   0.12260792  0.50867093  0.87739249
   0.87739432  0.49132882  0.87739437
   0.12260782  0.87739249  0.50867101
   0.12260475  0.12260474  0.49132986
   0.87739249  0.12260786  0.50867093
   0.87739435  0.87739431  0.49132878
   0.50867092  0.12260788  0.87739249
   0.49132980  0.12260470  0.12260474
   0.50867100  0.87739252  0.12260787
   0.49132881  0.87739432  0.87739436
   0.36860456  0.89901522  0.68827531
   0.63139799  0.10098643  0.68826929
   0.63140341  0.89901281  0.31173170
   0.36860064  0.10098605  0.31172902
   0.68827536  0.36860466  0.89901525
   0.68826927  0.63139801  0.10098643
   0.31173179  0.63140345  0.89901279
   0.31172899  0.36860062  0.10098602
   0.89901522  0.68827527  0.36860463
   0.10098642  0.68826937  0.63139789
   0.89901281  0.31173172  0.63140347
   0.10098605  0.31172907  0.36860056
   0.89901525  0.36860463  0.68827536
   0.10098646  0.63139804  0.68826924
   0.89901283  0.63140339  0.31173173
   0.10098603  0.36860063  0.31172897
   0.36860470  0.68827535  0.89901525
   0.63139798  0.68826933  0.10098642
   0.63140347  0.31173174  0.89901279
   0.36860054  0.31172905  0.10098604
   0.68827529  0.89901522  0.36860457
   0.68826935  0.10098643  0.63139792
   0.31173166  0.89901282  0.63140346
   0.31172905  0.10098605  0.36860064
   0.86860458  0.39901524  0.18827530
   0.13139800  0.60098645  0.18826926
   0.13140343  0.39901282  0.81173171
   0.86860064  0.60098604  0.81172905
   0.18827534  0.86860466  0.39901524
   0.18826925  0.13139805  0.60098646
   0.81173179  0.13140345  0.39901278
   0.81172899  0.86860060  0.60098601
   0.39901523  0.18827528  0.86860465
   0.60098643  0.18826933  0.13139793
   0.39901282  0.81173173  0.13140346
   0.60098605  0.81172910  0.86860053
   0.39901522  0.86860460  0.18827533
   0.60098644  0.13139803  0.18826924
   0.39901280  0.13140343  0.81173178
   0.60098602  0.86860062  0.81172896
   0.86860468  0.18827533  0.39901523
   0.13139796  0.18826934  0.60098641
   0.13140346  0.81173177  0.39901279
   0.86860053  0.81172905  0.60098603
   0.18827527  0.39901522  0.86860455
   0.18826934  0.60098644  0.13139792
   0.81173170  0.39901283  0.13140348
   0.81172907  0.60098604  0.86860063
   0.40491796  0.08677550  0.59507829
   0.59507840  0.91322420  0.59507840
   0.59507831  0.08677549  0.40491790
   0.40492124  0.91322344  0.40492136
   0.59507805  0.40491792  0.08677545
   0.59507862  0.59507850  0.91322423
   0.40491798  0.59507814  0.08677539
   0.40492132  0.40492116  0.91322336
   0.08677547  0.59507828  0.40491782
   0.91322418  0.59507844  0.59507861
   0.08677546  0.40491807  0.59507814
   0.91322344  0.40492125  0.40492139
   0.90491797  0.58677544  0.09507827
   0.09507848  0.41322419  0.09507846
   0.09507840  0.58677546  0.90491786
   0.90492120  0.41322346  0.90492132
   0.09507805  0.90491791  0.58677541
   0.09507863  0.09507853  0.41322424
   0.90491786  0.09507817  0.58677537
   0.90492125  0.90492111  0.41322334
   0.58677539  0.09507826  0.90491784
   0.41322418  0.09507846  0.09507870
   0.58677547  0.90491800  0.09507823
   0.41322344  0.90492119  0.90492133
   0.50000125  0.00000078  0.75000116
   0.50000078  0.00000129  0.25000036
   0.75000106  0.50000120  0.00000089
   0.25000030  0.50000077  0.00000117
   0.00000080  0.75000126  0.50000126
   0.00000118  0.25000029  0.50000075
   0.00000096  0.50000122  0.75000137
   0.00000120  0.50000063  0.25000034
   0.50000126  0.75000127  0.00000082
   0.50000081  0.25000034  0.00000120
   0.75000121  0.00000070  0.50000118
   0.25000028  0.00000120  0.50000099
   0.40980680  0.96841086  0.68261829
   0.59019129  0.03159216  0.68261346
   0.59019648  0.96840769  0.31738352
   0.40980774  0.03159144  0.31738548
   0.68261831  0.40980681  0.96841094
   0.68261347  0.59019129  0.03159222
   0.31738352  0.59019649  0.96840765
   0.31738547  0.40980777  0.03159141
   0.96841088  0.68261832  0.40980678
   0.03159215  0.68261348  0.59019126
   0.96840771  0.31738352  0.59019648
   0.03159146  0.31738548  0.40980777
   0.96841093  0.40980684  0.68261834
   0.03159223  0.59019129  0.68261349
   0.96840770  0.59019649  0.31738348
   0.03159143  0.40980776  0.31738546
   0.40980681  0.68261835  0.96841092
   0.59019130  0.68261352  0.03159219
   0.59019648  0.31738350  0.96840768
   0.40980778  0.31738546  0.03159145
   0.68261832  0.96841086  0.40980676
   0.68261351  0.03159215  0.59019125
   0.31738350  0.96840770  0.59019651
   0.31738546  0.03159146  0.40980780
   0.90980679  0.46841084  0.18261830
   0.09019132  0.53159219  0.18261348
   0.09019653  0.46840766  0.81738352
   0.90980773  0.53159146  0.81738546
   0.18261832  0.90980678  0.46841092
   0.18261347  0.09019134  0.53159228
   0.81738352  0.09019651  0.46840761
   0.81738545  0.90980774  0.53159143
   0.46841084  0.18261833  0.90980678
   0.53159219  0.18261349  0.09019130
   0.46840769  0.81738353  0.09019651
   0.53159151  0.81738548  0.90980774
   0.46841087  0.90980679  0.18261833
   0.53159222  0.09019133  0.18261348
   0.46840763  0.09019653  0.81738350
   0.53159144  0.90980772  0.81738543
   0.90980678  0.18261834  0.46841085
   0.09019131  0.18261351  0.53159221
   0.09019650  0.81738351  0.46840764
   0.90980772  0.81738545  0.53159148
   0.18261834  0.46841081  0.90980676
   0.18261349  0.53159216  0.09019129
   0.81738349  0.46840766  0.09019651
   0.81738542  0.53159147  0.90980776
 
 position of ions in cartesian coordinates  (Angst):
   6.55338244 14.59877607 12.48822382
  10.52410688  2.47877699 12.48803920
  10.52428248 14.59869352  4.58943755
   6.55326609  2.47869232  4.58930248
  12.48822677  6.55338436 14.59878518
  12.48803001 10.52410051  2.47878745
   4.58944253 10.52428397 14.59869612
   4.58929203  6.55325620  2.47869195
  14.59877342 12.48820842  6.55339755
   2.47878047 12.48803686 10.52409847
  14.59870286  4.58942408 10.52429808
   2.47869521  4.58929764  6.55325611
  14.59878404  6.55337904 12.48823026
   2.47878608 10.52410482 12.48803233
  14.59869411 10.52427767  4.58944367
   2.47869060  6.55325897  4.58929392
   6.55339637 12.48821547 14.59878043
  10.52409960 12.48803219  2.47878438
  10.52429500  4.58942931 14.59870192
   6.55325388  4.58929365  2.47869415
  12.48821511 14.59877187  6.55339051
  12.48804033  2.47877610 10.52410478
   4.58942723 14.59869927 10.52429316
   4.58930406  2.47869385  6.55326575
  15.09204797  6.06006844  3.94952212
   1.98539901 11.01745202  3.94932779
   1.98558847  6.05999178 13.12810320
  15.09200612 11.01743112 13.12804868
   3.94951317 15.09205569  6.06007514
   3.94933069  1.98540192 11.01745475
  13.12811131  1.98557807  6.05999359
  13.12803329 15.09199097 11.01743567
   6.06007432  3.94950489 15.09206206
  11.01744970  3.94932625  1.98540104
   6.05999130 13.12809712  1.98559127
  11.01743755 13.12803639 15.09199675
   6.06007074 15.09204789  3.94951942
  11.01745319  1.98539802  3.94933039
   6.05999378  1.98557752 13.12811224
  11.01743245 15.09199369 13.12803768
  15.09206128  3.94950559  6.06007701
   1.98540327  3.94932997 11.01745056
   1.98558471 13.12810450  6.05999120
  15.09199146 13.12803137 11.01743923
   3.94951620  6.06006953 15.09205189
   3.94932836 11.01744872  1.98539736
  13.12809662  6.05999035  1.98559553
  13.12804780 11.01743257 15.09200749
   6.40108533  2.30825568 10.67623816
  10.34859389 15.48042123  9.08788259
  10.67623814  2.30825280  6.40108238
   6.40122255 14.76915012  6.40123073
   9.08782746  6.72879649  1.59702436
  10.67631782 10.67630131 14.76923270
   7.98954018 10.34853475  1.59709158
   6.40123264  6.40121876 14.76915415
   1.59702441  9.08783390  6.72879608
  14.76922809 10.67630007 10.67631806
   1.59709179  7.98954452 10.34853753
  14.76915240  6.40121642  6.40123882
   2.30826340  6.40108510 10.67622894
  15.48042103 10.34859048  9.08788973
   2.30825511 10.67623302  6.40107579
  15.48039334  6.72891720  7.98963936
   6.40107874 10.67622496  2.30826022
  10.34860361  9.08787777 15.48043027
  10.67622155  6.40107522  2.30826393
   6.72892703  7.98962525 15.48038570
   9.08783816  1.59702398  6.72879965
  10.67630180 14.76922069 10.67630823
   7.98954574  1.59708971 10.34854571
   7.98962773 15.48038534  6.72892646
  14.93978242 10.84695449  2.13757388
   1.80985647  6.94168806  0.54914087
   2.13757467 10.84695641 14.93977960
  15.26762700  6.94172134 16.52834121
   0.54916174 15.26750034 10.13572044
   2.13757695  2.13756907  6.23049236
  14.93978264  2.13755600 10.84696444
  16.52833155 15.26761428  6.94172821
  10.84696327  2.13756403 14.93978475
   6.94168894  0.54913865  1.80986639
  10.13578714 16.52824282  1.80987892
   6.94172583 16.52833023 15.26762947
  10.84695673 14.93978110  2.13756771
   6.23049078  2.13756355  2.13757980
  10.13579781  1.80987033 16.52824678
   6.23048910 14.93992336 14.93993318
  15.26750331  0.54915965 10.13572746
   1.80986583  0.54914262  6.94168961
   2.13755715 14.93978189 10.84696158
  14.93992630 14.93991670  6.23049285
   0.54917374 10.13572736 15.26749922
   2.13756752  6.23048784  2.13756725
  16.52824254 10.13578548  1.80988182
  14.93993065  6.23048217 14.93993655
   6.72880120  1.59702542  9.08783746
   9.08787827 15.48042097 10.34859777
  10.34854608  1.59708935  7.98954480
   6.72891664 15.48038777  7.98963437
  10.34853557  7.98953757  1.59709813
   9.08788783 10.34859599 15.48042516
   6.72879639  9.08782940  1.59702379
   7.98963608  6.72891443 15.48038925
   1.59709447 10.34854373  7.98953904
  15.48042526  9.08787469 10.34860821
   1.59702738  6.72880074  9.08783166
  15.48038757  7.98962411  6.72892729
  15.26749785 10.13572115  0.54917299
   0.54914024  6.94168606  1.80985988
   1.80988537 10.13579280 16.52824312
  16.52833682  6.94171749 15.26762994
   1.80986848 16.52824422 10.13579367
   0.54914730  1.80986096  6.94168719
  16.52824690  1.80986896 10.13579814
  15.26761898 16.52832483  6.94172307
  10.13573122  0.54916372 15.26749980
   6.94168174  1.80985736  0.54914933
  10.13572191 15.26749964  0.54916946
   6.94172754 15.26761632 16.52833695
   6.44491308  0.14811171 10.63254442
  10.63253081 16.92938226 10.63253516
  10.63254442  0.14810977  6.44491265
   6.44496370 16.92935000  6.44496937
  10.63253852  6.44490462  0.14811910
  10.63253636 10.63252789 16.92939131
   6.44490528 10.63253874  0.14811643
   6.44497245  6.44496380 16.92935382
   0.14811335 10.63254122  6.44490785
  16.92938791 10.63252518 10.63253893
   0.14811789  6.44490880 10.63254108
  16.92935241  6.44496010  6.44497382
  14.98360936  8.68681149  2.09388062
   2.09379091  8.39064676  2.09379334
   2.09387921  8.68681560 14.98361200
  14.98367305  8.39067977 14.98367604
   2.09387270 14.98361060  8.68681826
   2.09379635  2.09379231  8.39064958
  14.98361423  2.09386877  8.68682256
  14.98366853 14.98366360  8.39069038
   8.68682226  2.09387120 14.98361483
   8.39064793  2.09378944  2.09379658
   8.68681369 14.98360873  2.09387756
   8.39068712 14.98366596 14.98367296
   6.29486766 15.35288449 11.75400544
  10.78267335  1.72462991 11.75388552
  10.78277390 15.35283776  5.32362813
   6.29475977  1.72460205  5.32354286
  11.75400880  6.29486458 15.35289208
  11.75387801 10.78266506  1.72463846
   5.32362925 10.78277515 15.35284322
   5.32353837  6.29475570  1.72460582
  15.35288571 11.75399704  6.29487445
   1.72463494 11.75388187 10.78266758
  15.35284450  5.32361891 10.78278378
   1.72460545  5.32354041  6.29475716
  15.35289033  6.29486284 11.75401025
   1.72463633 10.78266901 11.75388071
  15.35284061 10.78277070  5.32363076
   1.72460445  6.29475722  5.32353997
   6.29487275 11.75400152 15.35288972
  10.78266560 11.75387805  1.72463781
  10.78278264  5.32362082 15.35284564
   6.29475536  5.32353857  1.72460658
  11.75400066 15.35288267  6.29487176
  11.75388630  1.72462956 10.78267245
   5.32362346 15.35283976 10.78277922
   5.32354300  1.72460234  6.29476014
  14.83353401  6.81417843  3.21530546
   2.24396381 10.26330096  3.21517783
   2.24407748  6.81413733 13.86229265
  14.83350028 10.26333828 13.86228614
   3.21529861 14.83353523  6.81418469
   3.21518078  2.24396514 10.26330317
  13.86229540  2.24406878  6.81414316
  13.86227893 14.83349178 10.26334848
   6.81418910  3.21529654 14.83353904
  10.26330108  3.21517464  2.24396846
   6.81413489 13.86228972  2.24407639
  10.26334595 13.86227727 14.83349952
   6.81418011 14.83353293  3.21530244
  10.26330209  2.24396236  3.21518095
   6.81414329  2.24407083 13.86229586
  10.26334478 14.83349342 13.86228252
  14.83353845  3.21529471  6.81418954
   2.24396845  3.21517760 10.26330192
   2.24407265 13.86229208  6.81413827
  14.83349555 13.86227489 10.26334929
   3.21530350  6.81418209 14.83353573
   3.21517631 10.26330032  2.24396513
  13.86229029  6.81413343  2.24407972
  13.86228383 10.26333852 14.83350283
   6.91497730  1.48193390 10.16241466
  10.16244981 15.59554044 10.16245412
  10.16241465  1.48193267  6.91497645
   6.91505032 15.59551497  6.91505672
  10.16240603  6.91496895  1.48193964
  10.16245769 10.16244816 15.59554858
   6.91497097 10.16240690  1.48193722
   6.91505842  6.91504817 15.59551891
   1.48193598 10.16241109  6.91497134
  15.59554487 10.16244526 10.16246004
   1.48193832  6.91497456 10.16240971
  15.59551816  6.91504674  6.91506104
  15.45367421 10.02063351  1.62375012
   1.62371078  7.05680386  1.62371225
   1.62375010 10.02063851 15.45367559
  15.45375957  7.05684460 15.45376335
   1.62373990 15.45367533 10.02063872
   1.62371732  1.62371240  7.05680605
  15.45367885  1.62373671 10.02064407
  15.45375398 15.45374804  7.05685420
  10.02064442  1.62374012 15.45367887
   7.05680439  1.62370924  1.62371883
  10.02063524 15.45367405  1.62374708
   7.05685202 15.45375220 15.45375974
   8.53875745  0.00005511 12.80809655
   8.53872757  0.00004594  4.26937946
  12.80808842  8.53874651  0.00006523
   4.26937208  8.53872411  0.00004856
   0.00005850 12.80809476  8.53875171
   0.00004973  4.26937466  8.53872516
   0.00006459  8.53875116 12.80809641
   0.00004678  8.53872317  4.26937529
   8.53874783 12.80809190  0.00006219
   8.53872484  4.26937256  0.00005086
  12.80809746  0.00005223  8.53875589
   4.26937824  0.00004587  8.53873110
   6.99849683 16.53798318 11.65740237
  10.07896746  0.53955423 11.65729443
  10.07906892 16.53792138  5.42014730
   6.99846821  0.53952354  5.42013974
  11.65740537  6.99849272 16.53799167
  11.65728734 10.07895846  0.53956358
   5.42014786 10.07906985 16.53792628
   5.42013465  6.99846480  0.53952756
  16.53798516 11.65739457  6.99850305
   0.53955865 11.65729036 10.07896198
  16.53792785  5.42013758 10.07907840
   0.53952785  5.42013665  6.99846669
  16.53798966  6.99849159 11.65740740
   0.53956133 10.07896218 11.65729077
  16.53792404 10.07906593  5.42014944
   0.53952614  6.99846619  5.42013663
   6.99850076 11.65739825 16.53798932
  10.07895918 11.65728763  0.53956229
  10.07907741  5.42013951 16.53792884
   6.99846514  5.42013411  0.53952892
  11.65739825 16.53798152  6.99850060
  11.65729516  0.53955353 10.07896665
   5.42014258 16.53792307 10.07907406
   5.42013935  0.53952434  6.99846930
  15.53716288  7.99927637  3.11870276
   1.54025812  9.07822552  3.11858748
   1.54037297  7.99922014 13.95881157
  15.53720861  9.07826020 13.95888217
   3.11869569 15.53716296  7.99928414
   3.11859041  1.54025874  9.07822874
  13.95881397  1.54036364  7.99922568
  13.95887491 15.53720050  9.07827065
   7.99928775  3.11869404 15.53716730
   9.07822547  3.11858406  1.54026288
   7.99921768 13.95880853  1.54037171
   9.07826918 13.95887290 15.53720906
   7.99927879 15.53716143  3.11869999
   9.07822728  1.54025645  3.11859085
   7.99922599  1.54036602 13.95881415
   9.07826686 15.53720185 13.95887883
  15.53716635  3.11869171  7.99928837
   1.54026245  3.11858702  9.07822691
   1.54036778 13.95881039  7.99922088
  15.53720468 13.95887020  9.07827221
   3.11870175  7.99928010 15.53716478
   3.11858514  9.07822446  1.54026005
  13.95880851  7.99921596  1.54037434
  13.95887932  9.07826092 15.53721146
 


--------------------------------------------------------------------------------------------------------


 k-point  1 :   0.0000 0.0000 0.0000  plane waves:  256119

 maximum and minimum number of plane-waves per node :     10685    10665

 maximum number of plane-waves:    256119
 maximum index in each direction: 
   IXMAX=   39   IYMAX=   39   IZMAX=   39
   IXMIN=  -39   IYMIN=  -39   IZMIN=  -39

 NGX is ok and might be reduce to 158
 NGY is ok and might be reduce to 158
 NGZ is ok and might be reduce to 158

 real space projection operators:
  total allocation   :      96218.16 KBytes
  max/ min on nodes  :       4562.39       3705.36


 parallel 3D FFT for wavefunctions:
    minimum data exchange during FFTs selected (reduces bandwidth)
 parallel 3D FFT for charge:
    minimum data exchange during FFTs selected (reduces bandwidth)


 total amount of memory used by VASP on root node   343620. kBytes
========================================================================

   base      :      30000. kBytes
   nonlr-proj:      39273. kBytes
   fftplans  :      53043. kBytes
   grid      :     110906. kBytes
   one-center:        968. kBytes
   wavefun   :     109430. kBytes
 
     INWAV:  cpu time    0.0000: real time    0.0001
 Broyden mixing: mesh for mixing (old mesh)
   NGX = 79   NGY = 79   NGZ = 79
  (NGX  =320   NGY  =320   NGZ  =320)
  gives a total of 493039 points

 initial charge density was supplied:
 charge density of overlapping atoms calculated
 number of electron     984.0000000 magnetization 
 keeping initial charge density in first step


--------------------------------------------------------------------------------------------------------


 Maximum index for non-local projection operator          437
 Maximum index for augmentation-charges         1154 (set IRDMAX)


--------------------------------------------------------------------------------------------------------


 First call to EWALD:  gamma=   0.104
 Maximum number of real-space cells 3x 3x 3
 Maximum number of reciprocal cells 3x 3x 3

 FEWALD executed in parallel
    FEWALD:  cpu time    0.0167: real time    0.0167


----------------------------------------- Iteration    1(   1)  ---------------------------------------


    POTLOK:  cpu time    1.9165: real time    1.9194
    SETDIJ:  cpu time    1.7691: real time    1.7705
     EDDAV:  cpu time   71.8430: real time   71.9685
       DOS:  cpu time    0.0015: real time    0.0015
    --------------------------------------------
      LOOP:  cpu time   75.5326: real time   75.6635

 eigenvalue-minimisations  :  1358
 total energy-change (2. order) : 0.1914152E+05  (-0.4839519E+05)
 number of electron     984.0000000 magnetization 
 augmentation part      984.0000000 magnetization 

 Free energy of the ion-electron system (eV)
  ---------------------------------------------------
  alpha Z        PSCENC =       912.98143023
  Ewald energy   TEWEN  =     31788.00476699
  -Hartree energ DENC   =   -120572.41043611
  -exchange      EXHF   =         0.00000000
  -V(xc)+E(xc)   XCENC  =      4594.21445746
  PAW double counting   =     83165.94944879   -86399.97475570
  entropy T*S    EENTRO =        -0.04851902
  eigenvalues    EBANDS =      2967.69804314
  atomic energy  EATOM  =    102685.10712781
  Solvation  Ediel_sol  =         0.00000000
  ---------------------------------------------------
  free energy    TOTEN  =     19141.52156360 eV

  energy without entropy =    19141.57008262  energy(sigma->0) =    19141.54582311


--------------------------------------------------------------------------------------------------------




----------------------------------------- Iteration    1(   2)  ---------------------------------------


     EDDAV:  cpu time   94.6858: real time   94.8237
       DOS:  cpu time    0.0014: real time    0.0014
    --------------------------------------------
      LOOP:  cpu time   94.6972: real time   94.8345

 eigenvalue-minimisations  :  1918
 total energy-change (2. order) :-0.1529802E+05  (-0.1450623E+05)
 number of electron     984.0000000 magnetization 
 augmentation part      984.0000000 magnetization 

 Free energy of the ion-electron system (eV)
  ---------------------------------------------------
  alpha Z        PSCENC =       912.98143023
  Ewald energy   TEWEN  =     31788.00476699
  -Hartree energ DENC   =   -120572.41043611
  -exchange      EXHF   =         0.00000000
  -V(xc)+E(xc)   XCENC  =      4594.21445746
  PAW double counting   =     83165.94944879   -86399.97475570
  entropy T*S    EENTRO =        -0.04365824
  eigenvalues    EBANDS =    -12330.32544450
  atomic energy  EATOM  =    102685.10712781
  Solvation  Ediel_sol  =         0.00000000
  ---------------------------------------------------
  free energy    TOTEN  =      3843.50293673 eV

  energy without entropy =     3843.54659497  energy(sigma->0) =     3843.52476585


--------------------------------------------------------------------------------------------------------




----------------------------------------- Iteration    1(   3)  ---------------------------------------


     EDDAV:  cpu time  120.4222: real time  123.7604
       DOS:  cpu time    0.0014: real time    0.0014
    --------------------------------------------
      LOOP:  cpu time  120.4398: real time  123.7787

 eigenvalue-minimisations  :  2284
 total energy-change (2. order) :-0.4549785E+04  (-0.4308709E+04)
 number of electron     984.0000000 magnetization 
 augmentation part      984.0000000 magnetization 

 Free energy of the ion-electron system (eV)
  ---------------------------------------------------
  alpha Z        PSCENC =       912.98143023
  Ewald energy   TEWEN  =     31788.00476699
  -Hartree energ DENC   =   -120572.41043611
  -exchange      EXHF   =         0.00000000
  -V(xc)+E(xc)   XCENC  =      4594.21445746
  PAW double counting   =     83165.94944879   -86399.97475570
  entropy T*S    EENTRO =        -0.07802406
  eigenvalues    EBANDS =    -16880.07571156
  atomic energy  EATOM  =    102685.10712781
  Solvation  Ediel_sol  =         0.00000000
  ---------------------------------------------------
  free energy    TOTEN  =      -706.28169615 eV

  energy without entropy =     -706.20367209  energy(sigma->0) =     -706.24268412


--------------------------------------------------------------------------------------------------------




----------------------------------------- Iteration    1(   4)  ---------------------------------------


     EDDAV:  cpu time  115.1365: real time  115.3000
       DOS:  cpu time    0.0013: real time    0.0013
    --------------------------------------------
      LOOP:  cpu time  115.1552: real time  115.3196

 eigenvalue-minimisations  :  2412
 total energy-change (2. order) :-0.1143100E+04  (-0.1092673E+04)
 number of electron     984.0000000 magnetization 
 augmentation part      984.0000000 magnetization 

 Free energy of the ion-electron system (eV)
  ---------------------------------------------------
  alpha Z        PSCENC =       912.98143023
  Ewald energy   TEWEN  =     31788.00476699
  -Hartree energ DENC   =   -120572.41043611
  -exchange      EXHF   =         0.00000000
  -V(xc)+E(xc)   XCENC  =      4594.21445746
  PAW double counting   =     83165.94944879   -86399.97475570
  entropy T*S    EENTRO =        -0.11247707
  eigenvalues    EBANDS =    -18023.14087441
  atomic energy  EATOM  =    102685.10712781
  Solvation  Ediel_sol  =         0.00000000
  ---------------------------------------------------
  free energy    TOTEN  =     -1849.38131201 eV

  energy without entropy =    -1849.26883493  energy(sigma->0) =    -1849.32507347


--------------------------------------------------------------------------------------------------------




----------------------------------------- Iteration    1(   5)  ---------------------------------------


     EDDAV:  cpu time  117.7886: real time  118.0720
       DOS:  cpu time    0.0014: real time    0.0014
    CHARGE:  cpu time    5.8644: real time    5.8727
    MIXING:  cpu time    0.0422: real time    0.0422
    --------------------------------------------
      LOOP:  cpu time  123.7040: real time  123.9972

 eigenvalue-minimisations  :  2468
 total energy-change (2. order) :-0.1998840E+03  (-0.1839033E+03)
 number of electron     983.9999750 magnetization 
 augmentation part       84.7038101 magnetization 

 Broyden mixing:
  rms(total) = 0.29892E+02    rms(broyden)= 0.29891E+02
  rms(prec ) = 0.33328E+02
  weight for this iteration     100.00

 Free energy of the ion-electron system (eV)
  ---------------------------------------------------
  alpha Z        PSCENC =       912.98143023
  Ewald energy   TEWEN  =     31788.00476699
  -Hartree energ DENC   =   -120572.41043611
  -exchange      EXHF   =         0.00000000
  -V(xc)+E(xc)   XCENC  =      4594.21445746
  PAW double counting   =     83165.94944879   -86399.97475570
  entropy T*S    EENTRO =        -0.10602288
  eigenvalues    EBANDS =    -18223.03137555
  atomic energy  EATOM  =    102685.10712781
  Solvation  Ediel_sol  =         0.00000000
  ---------------------------------------------------
  free energy    TOTEN  =     -2049.26535895 eV

  energy without entropy =    -2049.15933608  energy(sigma->0) =    -2049.21234752


--------------------------------------------------------------------------------------------------------




----------------------------------------- Iteration    1(   6)  ---------------------------------------


    POTLOK:  cpu time    1.9078: real time    1.9112
    SETDIJ:  cpu time    1.7859: real time    1.7875
     EDDAV:  cpu time  114.0162: real time  117.4047
       DOS:  cpu time    0.0012: real time    0.0012
    CHARGE:  cpu time    5.5567: real time    5.5639
    MIXING:  cpu time    0.0372: real time    0.0375
    --------------------------------------------
      LOOP:  cpu time  123.3064: real time  126.7097

 eigenvalue-minimisations  :  2124
 total energy-change (2. order) : 0.3041402E+03  (-0.7042681E+03)
 number of electron     983.9999318 magnetization 
 augmentation part      170.8618374 magnetization 

 Broyden mixing:
  rms(total) = 0.36309E+02    rms(broyden)= 0.36309E+02
  rms(prec ) = 0.37136E+02
  weight for this iteration     100.00

 eigenvalues of (default mixing * dielectric matrix)
  average eigenvalue GAMMA=   0.3892
  0.3892

 Free energy of the ion-electron system (eV)
  ---------------------------------------------------
  alpha Z        PSCENC =       912.98143023
  Ewald energy   TEWEN  =     31788.00476699
  -Hartree energ DENC   =   -111772.29503595
  -exchange      EXHF   =         0.00000000
  -V(xc)+E(xc)   XCENC  =      4449.52386681
  PAW double counting   =     78022.16130559   -80422.27740253
  entropy T*S    EENTRO =        -0.00061218
  eigenvalues    EBANDS =    -27408.33057320
  atomic energy  EATOM  =    102685.10712781
  Solvation  Ediel_sol  =         0.00000000
  ---------------------------------------------------
  free energy    TOTEN  =     -1745.12512644 eV

  energy without entropy =    -1745.12451426  energy(sigma->0) =    -1745.12482035


--------------------------------------------------------------------------------------------------------




----------------------------------------- Iteration    1(   7)  ---------------------------------------


    POTLOK:  cpu time    1.8938: real time    1.8959
    SETDIJ:  cpu time    1.7864: real time    1.7877
     EDDAV:  cpu time   99.6046: real time   99.7543
       DOS:  cpu time    0.0012: real time    0.0012
    CHARGE:  cpu time    5.5464: real time    5.5546
    MIXING:  cpu time    0.0421: real time    0.0421
    --------------------------------------------
      LOOP:  cpu time  108.8756: real time  109.0375

 eigenvalue-minimisations  :  2022
 total energy-change (2. order) :-0.2819571E+03  (-0.1380069E+04)
 number of electron     983.9999417 magnetization 
 augmentation part      145.5755048 magnetization 

 Broyden mixing:
  rms(total) = 0.70116E+02    rms(broyden)= 0.70116E+02
  rms(prec ) = 0.70354E+02
  weight for this iteration     100.00

 eigenvalues of (default mixing * dielectric matrix)
  average eigenvalue GAMMA=   0.4816
  0.5864  0.3768

 Free energy of the ion-electron system (eV)
  ---------------------------------------------------
  alpha Z        PSCENC =       912.98143023
  Ewald energy   TEWEN  =     31788.00476699
  -Hartree energ DENC   =   -114222.65336420
  -exchange      EXHF   =         0.00000000
  -V(xc)+E(xc)   XCENC  =      4524.92630036
  PAW double counting   =     87686.83508882   -91016.31923026
  entropy T*S    EENTRO =        -0.00167799
  eigenvalues    EBANDS =    -24385.96266951
  atomic energy  EATOM  =    102685.10712781
  Solvation  Ediel_sol  =         0.00000000
  ---------------------------------------------------
  free energy    TOTEN  =     -2027.08222775 eV

  energy without entropy =    -2027.08054976  energy(sigma->0) =    -2027.08138875


--------------------------------------------------------------------------------------------------------




----------------------------------------- Iteration    1(   8)  ---------------------------------------


    POTLOK:  cpu time    1.8105: real time    1.9823
    SETDIJ:  cpu time    1.7810: real time    1.9324
     EDDAV:  cpu time  123.5273: real time  127.5772
       DOS:  cpu time    0.0014: real time    0.0014
    CHARGE:  cpu time    5.6039: real time    5.6112
    MIXING:  cpu time    0.0386: real time    0.0387
    --------------------------------------------
      LOOP:  cpu time  132.7640: real time  137.1462

 eigenvalue-minimisations  :  2364
 total energy-change (2. order) :-0.2032431E+03  (-0.1855778E+03)
 number of electron     983.9999426 magnetization 
 augmentation part      144.1854550 magnetization 

 Broyden mixing:
  rms(total) = 0.71856E+02    rms(broyden)= 0.71856E+02
  rms(prec ) = 0.72161E+02
  weight for this iteration     100.00

 eigenvalues of (default mixing * dielectric matrix)
  average eigenvalue GAMMA=   0.3567
  0.5827  0.4360  0.0514

 Free energy of the ion-electron system (eV)
  ---------------------------------------------------
  alpha Z        PSCENC =       912.98143023
  Ewald energy   TEWEN  =     31788.00476699
  -Hartree energ DENC   =   -113936.13338840
  -exchange      EXHF   =         0.00000000
  -V(xc)+E(xc)   XCENC  =      4530.01093848
  PAW double counting   =     82300.70502575   -85962.84741192
  entropy T*S    EENTRO =        -0.04946975
  eigenvalues    EBANDS =    -24548.10439128
  atomic energy  EATOM  =    102685.10712781
  Solvation  Ediel_sol  =         0.00000000
  ---------------------------------------------------
[...]
      9.08784      1.59702      6.72880         0.000013     -0.000053      0.000034
     10.67629     14.76921     10.67630        -0.000011     -0.000036     -0.000016
      7.98954      1.59708     10.34854         0.000030      0.000009      0.000003
      7.98962     15.48038      6.72891        -0.000047      0.000016     -0.000096
     14.93978     10.84695      2.13757         0.000044      0.000027      0.000008
      1.80985      6.94168      0.54914        -0.000010     -0.000038      0.000006
      2.13757     10.84695     14.93978         0.000007      0.000030      0.000050
     15.26761      6.94171     16.52833        -0.000085      0.000001     -0.000050
      0.54916     15.26750     10.13571         0.000021      0.000034     -0.000037
      2.13757      2.13757      6.23049        -0.000026     -0.000023     -0.000044
     14.93978      2.13755     10.84696         0.000053      0.000012      0.000034
     16.52832     15.26760      6.94172        -0.000050     -0.000080      0.000004
     10.84696      2.13756     14.93978         0.000036      0.000008      0.000050
      6.94168      0.54913      1.80986        -0.000041     -0.000004     -0.000019
     10.13578     16.52824      1.80987         0.000020      0.000023      0.000004
      6.94172     16.52832     15.26762         0.000003     -0.000050     -0.000089
     10.84695     14.93978      2.13756         0.000029      0.000045      0.000014
      6.23049      2.13756      2.13758        -0.000044     -0.000021     -0.000025
     10.13579      1.80986     16.52824         0.000020      0.000002      0.000031
      6.23049     14.93991     14.93992         0.000143     -0.000109     -0.000118
     15.26750      0.54915     10.13572         0.000040      0.000012     -0.000036
      1.80986      0.54914      6.94169        -0.000018     -0.000008     -0.000044
      2.13755     14.93978     10.84696         0.000016      0.000046      0.000031
     14.93992     14.93991      6.23049        -0.000110     -0.000113      0.000146
      0.54917     10.13572     15.26750         0.000006     -0.000042      0.000039
      2.13756      6.23048      2.13756        -0.000018     -0.000039     -0.000021
     16.52824     10.13578      1.80987         0.000030      0.000020      0.000000
     14.93992      6.23048     14.93992        -0.000112      0.000139     -0.000113
      6.72880      1.59702      9.08784         0.000033     -0.000052      0.000019
      9.08787     15.48041     10.34859         0.000001     -0.000026     -0.000002
     10.34854      1.59708      7.98954         0.000005      0.000008      0.000026
      6.72890     15.48038      7.98962        -0.000089      0.000014     -0.000054
     10.34853      7.98953      1.59709         0.000015      0.000023      0.000004
      9.08788     10.34859     15.48042        -0.000001     -0.000008     -0.000033
      6.72879      9.08783      1.59702         0.000029      0.000017     -0.000050
      7.98963      6.72890     15.48039        -0.000052     -0.000087      0.000017
      1.59709     10.34854      7.98954         0.000007      0.000004      0.000026
     15.48042      9.08787     10.34860        -0.000030     -0.000000     -0.000012
      1.59702      6.72880      9.08783        -0.000052      0.000025      0.000018
     15.48038      7.98962      6.72891         0.000014     -0.000056     -0.000094
     15.26750     10.13571      0.54917         0.000034     -0.000041      0.000013
      0.54914      6.94168      1.80986        -0.000004     -0.000037     -0.000009
      1.80988     10.13579     16.52824        -0.000003      0.000020      0.000029
     16.52833      6.94171     15.26762        -0.000052      0.000008     -0.000088
      1.80986     16.52824     10.13579         0.000013      0.000022      0.000014
      0.54914      1.80986      6.94168        -0.000006     -0.000015     -0.000043
     16.52824      1.80986     10.13579         0.000021      0.000004      0.000020
     15.26761     16.52832      6.94171        -0.000083     -0.000047      0.000013
     10.13572      0.54916     15.26750        -0.000040      0.000016      0.000038
      6.94168      1.80985      0.54914        -0.000034     -0.000011     -0.000009
     10.13572     15.26750      0.54916        -0.000044      0.000033      0.000013
      6.94172     15.26761     16.52833         0.000004     -0.000082     -0.000048
      6.44491      0.14811     10.63254         0.000087     -0.000023      0.000070
     10.63253     16.92938     10.63253        -0.000069     -0.000316     -0.000064
     10.63254      0.14811      6.44491         0.000066     -0.000010      0.000090
      6.44496     16.92935      6.44496        -0.000023      0.000096     -0.000029
     10.63253      6.44490      0.14811         0.000084      0.000067     -0.000075
     10.63253     10.63253     16.92938        -0.000052     -0.000054     -0.000274
      6.44490     10.63254      0.14811         0.000046      0.000105     -0.000129
      6.44496      6.44496     16.92935        -0.000064     -0.000072      0.000229
      0.14811     10.63254      6.44491        -0.000095      0.000088      0.000052
     16.92938     10.63252     10.63253        -0.000254     -0.000054     -0.000037
      0.14811      6.44491     10.63254        -0.000162      0.000032      0.000110
     16.92935      6.44495      6.44496         0.000138     -0.000035     -0.000037
     14.98361      8.68681      2.09387         0.000053     -0.000105      0.000087
      2.09379      8.39065      2.09379        -0.000046     -0.000245     -0.000041
      2.09387      8.68681     14.98361         0.000114     -0.000132      0.000056
     14.98366      8.39067     14.98367        -0.000035      0.000127     -0.000030
      2.09386     14.98361      8.68681         0.000097      0.000050     -0.000117
      2.09380      2.09379      8.39065        -0.000060     -0.000055     -0.000283
     14.98361      2.09386      8.68682         0.000084      0.000079     -0.000041
     14.98366     14.98366      8.39068        -0.000049     -0.000043      0.000175
      8.68682      2.09386     14.98361        -0.000050      0.000079      0.000076
      8.39065      2.09379      2.09380        -0.000323     -0.000064     -0.000077
      8.68681     14.98361      2.09387        -0.000087      0.000063      0.000087
      8.39068     14.98366     14.98366         0.000123     -0.000036     -0.000023
      6.29486     15.35288     11.75400        -0.000041     -0.000076      0.000029
     10.78267      1.72462     11.75388        -0.000139      0.000215      0.000199
     10.78277     15.35283      5.32362         0.000009     -0.000012     -0.000011
      6.29476      1.72460      5.32354        -0.000018     -0.000141      0.000084
     11.75400      6.29486     15.35289         0.000010     -0.000038     -0.000048
     11.75387     10.78266      1.72463         0.000201     -0.000147      0.000208
      5.32362     10.78277     15.35284         0.000062      0.000039      0.000049
      5.32353      6.29475      1.72460         0.000109     -0.000037     -0.000167
     15.35288     11.75399      6.29487        -0.000023     -0.000034     -0.000056
      1.72463     11.75388     10.78266         0.000150      0.000151     -0.000136
     15.35284      5.32361     10.78278         0.000069      0.000059      0.000039
      1.72460      5.32354      6.29475        -0.000108      0.000055     -0.000020
     15.35289      6.29486     11.75400         0.000010     -0.000073     -0.000056
      1.72463     10.78266     11.75387         0.000165     -0.000133      0.000157
     15.35283     10.78277      5.32362         0.000027      0.000025      0.000034
      1.72460      6.29475      5.32354        -0.000120     -0.000017      0.000061
      6.29486     11.75399     15.35289        -0.000067     -0.000069      0.000015
     10.78266     11.75387      1.72463        -0.000151      0.000197      0.000201
     10.78278      5.32361     15.35284         0.000013     -0.000010     -0.000009
      6.29475      5.32354      1.72460        -0.000035      0.000112     -0.000175
     11.75399     15.35288      6.29486         0.000016     -0.000069     -0.000041
     11.75388      1.72462     10.78267         0.000194      0.000213     -0.000136
      5.32361     15.35283     10.78277        -0.000025     -0.000026      0.000012
      5.32354      1.72460      6.29476         0.000079     -0.000130     -0.000021
     14.83353      6.81418      3.21530        -0.000047     -0.000055      0.000007
      2.24396     10.26330      3.21517        -0.000123      0.000118      0.000117
      2.24407      6.81413     13.86229         0.000011      0.000025      0.000014
     14.83349     10.26333     13.86228        -0.000004     -0.000115      0.000057
      3.21529     14.83353      6.81418        -0.000009     -0.000035     -0.000018
      3.21517      2.24396     10.26330         0.000215     -0.000164      0.000210
     13.86229      2.24406      6.81414        -0.000029     -0.000007     -0.000025
     13.86227     14.83348     10.26334         0.000059     -0.000012     -0.000129
      6.81418      3.21529     14.83354        -0.000077      0.000045     -0.000007
     10.26330      3.21517      2.24396         0.000222      0.000218     -0.000158
      6.81413     13.86229      2.24407         0.000008     -0.000017     -0.000001
     10.26334     13.86227     14.83349        -0.000100      0.000037     -0.000007
      6.81418     14.83353      3.21530        -0.000040     -0.000031      0.000015
     10.26330      2.24396      3.21517         0.000233     -0.000157      0.000223
      6.81414      2.24407     13.86229        -0.000029     -0.000024     -0.000045
     10.26333     14.83349     13.86227        -0.000107     -0.000007      0.000043
     14.83354      3.21529      6.81418        -0.000023      0.000027     -0.000069
      2.24396      3.21517     10.26330        -0.000168      0.000210      0.000197
      2.24407     13.86229      6.81413         0.000010      0.000005      0.000017
     14.83349     13.86227     10.26334        -0.000015      0.000054     -0.000115
      3.21530      6.81418     14.83353        -0.000012     -0.000025     -0.000041
      3.21517     10.26330      2.24396         0.000115      0.000119     -0.000120
     13.86229      6.81413      2.24407        -0.000002      0.000004      0.000014
     13.86228     10.26333     14.83349         0.000060     -0.000123     -0.000004
      6.91497      1.48193     10.16241        -0.000006      0.000026     -0.000017
     10.16244     15.59554     10.16245         0.000050      0.000116      0.000049
     10.16241      1.48193      6.91497        -0.000003      0.000021      0.000001
      6.91504     15.59551      6.91505         0.000002     -0.000026      0.000017
     10.16240      6.91497      1.48193        -0.000034      0.000018      0.000053
     10.16245     10.16244     15.59555         0.000047      0.000049      0.000090
      6.91497     10.16240      1.48193         0.000018     -0.000038      0.000068
      6.91505      6.91504     15.59551         0.000035      0.000031     -0.000081
      1.48193     10.16241      6.91497         0.000052     -0.000025      0.000017
     15.59554     10.16244     10.16245         0.000089      0.000041      0.000058
      1.48193      6.91497     10.16241         0.000077      0.000026     -0.000038
     15.59551      6.91504      6.91505        -0.000039      0.000025      0.000023
     15.45367     10.02063      1.62374        -0.000001      0.000028     -0.000011
      1.62371      7.05681      1.62371         0.000055      0.000110      0.000052
      1.62374     10.02063     15.45367        -0.000007      0.000044      0.000007
     15.45375      7.05684     15.45376         0.000026     -0.000019      0.000011
      1.62373     15.45367     10.02063        -0.000027      0.000016      0.000048
      1.62372      1.62371      7.05681         0.000064      0.000059      0.000124
     15.45367      1.62373     10.02064         0.000004     -0.000003      0.000020
     15.45375     15.45374      7.05684         0.000021      0.000019     -0.000019
     10.02064      1.62373     15.45367         0.000026     -0.000018     -0.000008
      7.05681      1.62371      1.62372         0.000137      0.000059      0.000060
     10.02063     15.45367      1.62374         0.000031      0.000007     -0.000020
      7.05684     15.45375     15.45375        -0.000005      0.000011      0.000021
      8.53874      0.00006     12.80809        -0.000098      0.000181     -0.000160
      8.53873      0.00003      4.26938         0.000162     -0.000026     -0.000079
     12.80809      8.53873      0.00006        -0.000162      0.000117      0.000029
      4.26937      8.53873      0.00003        -0.000060      0.000136      0.000009
      0.00006     12.80809      8.53874         0.000144     -0.000149     -0.000066
      0.00003      4.26937      8.53873        -0.000026     -0.000115      0.000122
      0.00006      8.53874     12.80809         0.000097      0.000014     -0.000169
      0.00003      8.53873      4.26938         0.000015      0.000154     -0.000051
      8.53873     12.80809      0.00006        -0.000038     -0.000152      0.000141
      8.53873      4.26937      0.00004         0.000098     -0.000102      0.000064
     12.80809      0.00005      8.53874        -0.000182      0.000168     -0.000071
      4.26938      0.00003      8.53874        -0.000076      0.000017      0.000114
      6.99849     16.53798     11.65739         0.000057      0.000214     -0.000099
     10.07896      0.53955     11.65729        -0.000130      0.000019      0.000154
     10.07907     16.53791      5.42014        -0.000038     -0.000087     -0.000083
      6.99847      0.53952      5.42013        -0.000070      0.000086      0.000010
     11.65740      6.99849     16.53799        -0.000141      0.000004      0.000190
     11.65729     10.07895      0.53956         0.000118     -0.000101      0.000009
      5.42014     10.07907     16.53792         0.000005      0.000040     -0.000079
      5.42013      6.99846      0.53952         0.000086     -0.000130      0.000060
     16.53798     11.65739      6.99849         0.000191     -0.000159     -0.000012
      0.53955     11.65729     10.07896         0.000058      0.000120     -0.000073
     16.53792      5.42013     10.07907        -0.000082      0.000013      0.000054
      0.53952      5.42013      6.99847         0.000054      0.000030     -0.000068
     16.53799      6.99848     11.65740         0.000193     -0.000045     -0.000187
      0.53955     10.07896     11.65729         0.000026     -0.000077      0.000103
     16.53792     10.07906      5.42014        -0.000075      0.000017     -0.000014
      0.53952      6.99847      5.42013         0.000065     -0.000084      0.000035
      6.99849     11.65739     16.53799        -0.000046     -0.000185      0.000178
     10.07895     11.65729      0.53955        -0.000090      0.000114      0.000023
     10.07907      5.42013     16.53792        -0.000008     -0.000035     -0.000063
      6.99846      5.42013      0.53953        -0.000132      0.000089      0.000058
     11.65739     16.53798      6.99849        -0.000099      0.000199      0.000051
     11.65729      0.53955     10.07896         0.000149      0.000024     -0.000123
      5.42014     16.53792     10.07907        -0.000075     -0.000065     -0.000043
      5.42013      0.53952      6.99847         0.000006      0.000079     -0.000062
     15.53716      7.99927      3.11869        -0.000016      0.000211     -0.000169
      1.54025      9.07822      3.11859        -0.000047      0.000069      0.000102
      1.54037      7.99921     13.95881         0.000043     -0.000078      0.000003
     15.53720      9.07825     13.95887        -0.000084      0.000075      0.000035
      3.11869     15.53716      7.99928        -0.000160     -0.000024      0.000180
      3.11859      1.54025      9.07823         0.000128     -0.000103      0.000020
     13.95881      1.54036      7.99922        -0.000064     -0.000031     -0.000073
     13.95887     15.53719      9.07826         0.000057     -0.000100      0.000058
      7.99928      3.11869     15.53716         0.000204     -0.000139      0.000011
      9.07822      3.11858      1.54026         0.000029      0.000146     -0.000119
      7.99921     13.95881      1.54037        -0.000082     -0.000032      0.000013
      9.07826     13.95886     15.53720         0.000054      0.000036     -0.000076
      7.99928     15.53716      3.11869         0.000194     -0.000007     -0.000148
      9.07823      1.54025      3.11859         0.000024     -0.000135      0.000158
      7.99922      1.54036     13.95881        -0.000064     -0.000021     -0.000048
      9.07826     15.53720     13.95887         0.000069     -0.000069      0.000023
     15.53716      3.11868      7.99928         0.000019     -0.000131      0.000200
      1.54026      3.11858      9.07823        -0.000084      0.000121      0.000036
      1.54036     13.95881      7.99921         0.000022     -0.000012     -0.000069
     15.53720     13.95886      9.07826        -0.000090      0.000058      0.000047
      3.11869      7.99928     15.53716        -0.000202      0.000209     -0.000048
      3.11858      9.07822      1.54025         0.000102      0.000073     -0.000044
     13.95881      7.99921      1.54037         0.000002     -0.000061      0.000032
     13.95887      9.07825     15.53720         0.000039      0.000073     -0.000087
 -----------------------------------------------------------------------------------
    total drift:                                0.012270      0.012574      0.012391


--------------------------------------------------------------------------------------------------------



  FREE ENERGIE OF THE ION-ELECTRON SYSTEM (eV)
  ---------------------------------------------------
  free  energy   TOTEN  =     -1737.69715715 eV

  energy  without entropy=    -1737.69715715  energy(sigma->0) =    -1737.69715715
 
 d Force = 0.2970845E-06[ 0.944E-07, 0.500E-06]  d Energy = 0.2513648E-06 0.457E-07
 d Force =-0.5780590E-02[-0.578E-02,-0.578E-02]  d Ewald  =-0.5780411E-02-0.179E-06


--------------------------------------------------------------------------------------------------------


    POTLOK:  cpu time    3.6806: real time    3.6926


--------------------------------------------------------------------------------------------------------




--------------------------------------------------------------------------------------------------------


  
 reached required accuracy - stopping structural energy minimisation
     LOOP+:  cpu time  772.5081: real time  777.9565
    4ORBIT:  cpu time    0.0000: real time    0.0000

 total amount of memory used by VASP on root node   343620. kBytes
========================================================================

   base      :      30000. kBytes
   nonlr-proj:      39273. kBytes
   fftplans  :      53043. kBytes
   grid      :     110906. kBytes
   one-center:        968. kBytes
   wavefun   :     109430. kBytes
 
  
  
 General timing and accounting informations for this job:
 ========================================================
  
                  Total CPU time used (sec):    17166.857
                            User time (sec):    17110.594
                          System time (sec):       56.264
                         Elapsed time (sec):    17337.984
  
                   Maximum memory used (kb):      781720.
                   Average memory used (kb):           0.
  
                          Minor page faults:      2353623
                          Major page faults:            6
                 Voluntary context switches:         5683
