Generated by Yaff

                1216 atoms
                5888 bonds
                5888 angles 
                2560 dihedrals
                 512 impropers

                   8 atom types
                  25 bond types
                  34 angle types
                   10 dihedral types
                   3 improper types

    0.0000000000000000000000000000000000    32.4574675175423905670868407469242811 xlo xhi
    0.0000000000000000000000000000000000    27.5534273021647138079970318358391523 ylo yhi
    0.0000000000000000000000000000000000    26.7807137105026278334207745501771569 zlo zhi
    0.0000000000000000000000000000000000     0.0000000000000000000000000000000000     0.0000000000000000000000000000000000 xy xz yz

Masses

    1     26.98153860 #        AL_00000
    2     12.01070000 #      C_CA_00000
    3     12.01070000 #      C_PC_00000
    4     12.01070000 #      C_PH_00000
    5      1.00794000 #      H_HY_00000
    6      1.00794000 #      H_PH_00000
    7     15.99940000 #      O_CA_00000
    8     15.99940000 #      O_HY_00000

Bond Coeffs

       1                 mm3    569.85871349      0.98947865
       2                 mm3    154.27349827      1.85800822
       3                 mm3    111.35109188      1.91318502
       4                 mm3    385.16327272      1.09147842
       5                 mm3    489.90405497      1.38936591
       6                 mm3    452.33933540      1.40277735
       7                 mm3    666.19598994      1.27968495
       8                 mm3    318.75941190      1.49097944
       9               table      eibonded.table         btab000
      10               table      eibonded.table         btab001
      11               table      eibonded.table         btab002
      12               table      eibonded.table         btab003
      13               table      eibonded.table         btab004
      14               table      eibonded.table         btab005
      15               table      eibonded.table         btab006
      16               table      eibonded.table         btab007
      17               table      eibonded.table         btab008
      18               table      eibonded.table         btab009
      19               table      eibonded.table         btab010
      20               table      eibonded.table         btab011
      21               table      eibonded.table         btab012
      22               table      eibonded.table         btab013
      23               table      eibonded.table         btab014
      24               table      eibonded.table         btab015
      25               table      eibonded.table         btab016

Angle Coeffs

       1                 mm3     74.48839175    125.04371689
       2                 mm3     34.07881464    120.43604078
       3                 mm3     76.79276760    117.53575380
       4                 mm3     16.60413405    113.23867376
       5                 mm3     18.17184754    131.71440208
       6                 mm3     66.13822464    120.03277291
       7                 mm3     62.78198774    119.97574664
       8                 mm3     36.05829412    119.65165794
       9                 mm3     16.99184637    114.26949434
      10                 mm3     43.84356444    120.18566247
      11                 mm3     26.70948261     89.44808201
      12     cosine/periodic     4.28314137     1     1
      13     cosine/periodic     4.68540611     1     4
      14               cross      4.16257445     17.69242970     19.19511592      1.84517032      0.98833869    112.40663795
      15               cross      4.16257445     19.19511592     17.69242970      0.98833869      1.84517032    112.40663795
      16               cross     41.49324229     18.23103101     18.23103101      1.84517032      1.84517032    128.80709479
      17               cross     75.41142786     16.14285305     42.28955618      1.90916701      1.28017519    132.86674543
      18               cross     75.41142786     42.28955618     16.14285305      1.28017519      1.90916701    132.86674543
      19               cross     -5.87374890      0.00000000      0.00000000      1.84517032      1.84517032      0.00000000
      20               cross     20.16535310     48.41517601     35.80543951      1.90916701      1.84517032     89.63364215
      21               cross     20.16535310     35.80543951     48.41517601      1.84517032      1.90916701     89.63364215
      22               cross     25.48891634      0.00000000      0.00000000      1.90916701      1.90916701      0.00000000
      23               cross     12.42822566     24.73625338     32.00893428      1.40218816      1.09154112    119.44170035
      24               cross     12.42822566     32.00893428     24.73625338      1.09154112      1.40218816    119.44170035
      25               cross    120.54060780     19.44831972     25.53849516      1.40218816      1.39030804    120.14363901
      26               cross    120.54060780     25.53849516     19.44831972      1.39030804      1.40218816    120.14363901
      27               cross     12.20872726     28.30411853     28.47389095      1.39030804      1.09154112    120.48655338
      28               cross     12.20872726     28.47389095     28.30411853      1.09154112      1.39030804    120.48655338
      29               cross     72.85902360     32.55424391     16.42987999      1.48949665      1.40218816    120.00881823
      30               cross     72.85902360     16.42987999     32.55424391      1.40218816      1.48949665    120.00881823
      31               cross    130.00660182      5.17649186      5.17649186      1.40218816      1.40218816    119.78062260
      32               cross     97.26567429     43.29944767    106.91936247      1.48949665      1.28017519    117.77700177
      33               cross     97.26567429    106.91936247     43.29944767      1.28017519      1.48949665    117.77700177
      34               cross    180.83539867     97.13213733     97.13213733      1.28017519      1.28017519    124.75219023

Dihedral Coeffs

       1    1      3.63929632     2   -180.00000000
       2    1      0.11813557     2   -180.00000000
       3    1      2.24119156     2   -180.00000000
       4    1      4.82172525     2   -180.00000000
       5    1      3.78150933     2   -180.00000000
       6    1      3.11387753     2   -180.00000000
       7    1      1.50490579     2   -180.00000000
       8    1      3.86039823     2   -180.00000000
       9    1      2.13822350     2   -180.00000000
      10    1      2.09975188     2   -180.00000000

Improper Coeffs

       1     12.30298208      0.00000000
       2    163.96009792      0.00000000
       3     17.86478915      0.00000000

Atoms

    1   1   1     2.0909989460000000249806362262461334     8.1140389620000004100575097254477441    -6.8888151560000006057293830963317305     6.6984478429999994020249687309842557
    2   1   1     2.0909989460000000249806362262461334     8.1140966889999983635561875416897237    -3.4446367989999990832927778683369979     6.6984477850000025966892280848696828
    3   1   1     2.0909989460000000249806362262461334     0.0007379069999999998859252503535799    -3.4445020949999993753465332702035084     0.0020472169999999996134465440889016
    4   1   1     2.0909989460000000249806362262461334     0.0006801780000000002494170425748621    -6.8886805849999994677546055754646659     0.0020472659999999998428621417190243
    5   1   7    -0.7445643530000000120949721349461470     9.4297232590000010787889550556428730    -6.2959658459999978674659359967336059     7.9624298609999977216489241982344538
    6   1   8    -1.2098756939999999460155777342151850     8.1141834019999983240722940536215901    -5.1667260039999991505510479328222573     5.9277950940000030399801289604511112
    7   1   8    -1.2098756939999999460155777342151850     8.1140098559999973559797581401653588    -1.7225475999999997345213387234252878     7.4691005329999979878152771561872214
    8   1   7    -0.7445643530000000120949721349461470    14.9117345629999977774104991112835705    -6.2960546599999966943528306728694588    12.1308655540000014383394955075345933
    9   1   7    -0.7445643530000000120949721349461470     6.7979961629999960948111947800498456    -6.2959213059999985517833920312114060     7.9620354219999960321274556918069720
   10   1   7    -0.7445643530000000120949721349461470     1.3147284219999997301187022458179854    -6.2958309089999984209384820132981986    12.1288180000000025415829441044479609
   11   1   7    -0.7445643530000000120949721349461470     6.7980327619999991739518918620888144    -4.0374861400000003897048372891731560     7.9620343959999990701703609374817461
   12   1   7    -0.7445643530000000120949721349461470     6.7984340599999999454894350492395461    -2.8517428360000001141827397077577189     5.4344644110000022152462406666018069
   13   1   7    -0.7445643530000000120949721349461470     1.3164217279999999021811163402162492    -2.8516528749999996428243775881128386     1.2660297569999998668066609752713703
   14   1   7    -0.7445643530000000120949721349461470     9.4297598350000022549011191586032510    -4.0375306649999993524602359684649855     7.9624306679999978797468429547734559
   15   1   7    -0.7445643530000000120949721349461470     9.4301608639999994210256772930733860    -2.8517873819999994822182998177595437     5.4348614839999997982999957457650453
   16   1   7    -0.7445643530000000120949721349461470    14.9134280589999974608872435055673122    -2.8518766049999997314046140672871843     1.2680778949999997884390268154675141
   17   1   7    -0.7445643530000000120949721349461470     1.3147650040000002924500677181640640    -4.0373957020000004192183951090555638    12.1288170139999973429212332121096551
   18   1   7    -0.7445643530000000120949721349461470     6.7984704930000008360480023839045316    -0.5933076649999996510231881075014826     5.4344658179999969505047374696005136
   19   1   7    -0.7445643530000000120949721349461470     1.3164581420000001088510543922893703    -0.5932177659999998686757294308335986     1.2660310670000001209700712934136391
   20   1   7    -0.7445643530000000120949721349461470    14.9134647789999998934717950760386884    -0.5934415039999998420228166651213542     1.2680775109999999905596723692724481
   21   1   7    -0.7445643530000000120949721349461470     9.4301976060000018975415514432825148    -0.5933521640000001262649220734601840     5.4348610409999986714524311537388712
   22   1   7    -0.7445643530000000120949721349461470    14.9117711189999990750720826326869428    -4.0376194359999990624032761843409389    12.1308662760000025571116566425189376
   23   1   8    -1.2098756939999999460155777342151850    -0.0011327220000000000690865142871644    -1.7224125409999999636312395523418672    12.6217513059999966174018481979146600
   24   1   8    -1.2098756939999999460155777342151850    16.2293271099999998341445461846888065    -5.1668597209999997943441485404036939     0.7751439310000000082467863649071660
   25   1   4    -0.1065741179999999954652878386696102    12.7208153840000015577516023768112063    -3.9502761459999997661896031786454841    10.4655589960000003912909960490651429
   26   1   3    -0.1475182609999999838734652257699054    13.2767599680000021322712200344540179    -5.1668104970000001685548340901732445    10.8879884979999985716858645901083946
   27   1   4    -0.1065741179999999954652878386696102    12.7207765579999989569159879465587437    -6.3833269740000027070436772191897035    10.4655584489999977648722051526419818
   28   1   4    -0.1065741179999999954652878386696102    11.6206786359999991731228874414227903    -6.3833092420000001609992068551946431     9.6277374709999996582610037876293063
   29   1   3    -0.1475182609999999838734652257699054    11.0647340560000024822784325806424022    -5.1667748800000001807575245038606226     9.2053081289999987291139404987916350
   30   1   4    -0.1065741179999999954652878386696102    11.6207174699999971068109516636468470    -3.9502584230000001852545210567768663     9.6277380189999988147064868826419115
   31   1   2     0.8460320690000000531938439962686971     9.8839162770000026370098566985689104    -5.1667557159999990545884429593570530     8.3021759179999996547394403023645282
   32   1   2     0.8460320690000000531938439962686971    14.4575778860000028203103283885866404    -5.1668296050000002139768184861168265    11.7911205729999988278677847119979560
   33   1   2     0.8460320690000000531938439962686971     6.3437375139999980788729772029910237    -5.1666962009999997107456692901905626     8.3016438740000015883424566709436476
   34   1   3    -0.1475182609999999838734652257699054     5.1626474710000005430288183561060578    -5.1666766699999993051051205839030445     9.2044200109999998460352799156680703
   35   1   4    -0.1065741179999999954652878386696102     4.6065754349999998851217242190614343    -3.9501421119999995390514868631726131     9.6266812239999985933991411002352834
   36   1   4    -0.1065741179999999954652878386696102     3.5062246960000003070945240324363112    -3.9501240699999997652014371851691976    10.4641701500000010582880349829792976
   37   1   3    -0.1475182609999999838734652257699054     2.9501138519999998699461229989537969    -5.1666403110000000964419086812995374    10.8864327860000020820052668568678200
   38   1   4    -0.1065741179999999954652878386696102     3.5061859100000005717845397157361731    -6.3831748740000024966434466477949172    10.4641717679999981527316776919178665
   39   1   4    -0.1065741179999999954652878386696102     4.6065366499999997884629010513890535    -6.3831929139999976641206558269914240     9.6266828509999999852198016014881432
   40   1   2     0.8460320690000000531938439962686971     1.7690237140000000248818423642660491    -5.1666208139999998394387148437090218    11.7892087269999965570832500816322863
   41   1   2     0.8460320690000000531938439962686971     6.3442775380000009377567948831710964    -1.7225177250000003326135811221320182     5.0947194879999999628239493176806718
   42   1   3    -0.1475182609999999838734652257699054     5.1634597050000001772218638507183641    -1.7224983239999995809910160460276529     4.1915873389999998011035131639800966
   43   1   4    -0.1065741179999999954652878386696102     4.6075148520000004381813596410211176    -0.5059638789999999497482008337101433     3.7691585010000001609853370609926060
   44   1   4    -0.1065741179999999954652878386696102     3.5074166430000004446299044502666220    -0.5059459149999999683089413338166196     2.9313378389999997786219410045305267
   45   1   3    -0.1475182609999999838734652257699054     2.9514331140000003017576091224327683    -1.7224621639999997402270537349977531     2.5089075019999995674879755824804306
   46   1   4    -0.1065741179999999954652878386696102     3.5073781359999998130660969763994217    -2.9389965539999995947084698855178431     2.9313361579999992478917647531488910
   47   1   4    -0.1065741179999999954652878386696102     4.6074763330000001460007297282572836    -2.9390145920000003698646651173476130     3.7691568189999995475147898105205968
   48   1   2     0.8460320690000000531938439962686971     1.7706148379999999686873479731730185    -1.7224428279999999258365050991415046     1.6057758579999998893583779135951772
   49   1   2     0.8460320690000000531938439962686971     9.8844564370000043140862544532865286    -1.7225772340000000681925484968814999     5.0952526850000001701346263871528208
   50   1   3    -0.1475182609999999838734652257699054    11.0655464609999985015065249172039330    -1.7225965389999997601222503362805583     4.1924765329999997831578184559475631
   51   1   4    -0.1065741179999999954652878386696102    11.6216181780000020751231204485520720    -2.9391309799999998375596987898461521     3.7702146739999995439518443163251504
   52   1   4    -0.1065741179999999954652878386696102    12.7219685309999999134333847905509174    -2.9391487859999996246074260852765292     2.9327251770000000163918230100534856
   53   1   3    -0.1475182609999999838734652257699054    13.2780793419999998405955921043641865    -1.7226323479999998689038420707220212     2.5104627569999999892047526373062283
   54   1   4    -0.1065741179999999954652878386696102    12.7220076360000007298367563635110855    -0.5060978630000000366706558452278841     2.9327246869999994416389199614059180
   55   1   4    -0.1065741179999999954652878386696102    11.6216572810000009496889106230810285    -0.5060801369999999854698558010568377     3.7702141709999996699309576797531918
   56   1   2     0.8460320690000000531938439962686971    14.4591692439999999209021552815102041    -1.7226516110000003045854555239202455     1.6076864090000000384605982617358677
   57   1   6     0.1519691589999999925542084611151950    13.1547619150000016929880075622349977    -3.8736817259999996032604485662886873     2.6003322419999994608019733277615160
   58   1   6     0.1519691589999999925542084611151950    11.1887947640000007254457159433513880    -3.8736498820000000442576038039987907     4.1026079099999996913084032712504268
   59   1   6     0.1519691589999999925542084611151950    13.1535385289999986468956194585189223    -3.0157571979999993061483110068365932    10.7980824840000000364170773536898196
   60   1   6     0.1519691589999999925542084611151950    11.1880242130000002731549102463759482    -3.0157254949999994231291111645987257     9.2952147570000001053358573699370027
   61   1   5     0.5185263799999999534406924794893712     8.1143264389999991692548064747825265    -5.1667261350000011077554518124088645     4.9697032199999995327743818052113056
   62   1   5     0.5185263799999999534406924794893712     8.1138668690000042005294744740240276    -1.7225475820000000215515001400490291     8.4271923849999961220191835309378803
   63   1   5     0.5185263799999999534406924794893712    -0.0009863859999999999034897557592672    -1.7224125779999996943558926432160661    11.6636594450000021794267013319768012
   64   1   5     0.5185263799999999534406924794893712    16.2291833449999955973908072337508202    -5.1668595679999995695652614813297987     1.7332357759999996726918425338226371
   65   1   6     0.1519691589999999925542084611151950     5.0401696889999998418829818547237664    -3.8735476649999993625783645256888121     4.1016794839999990429646459233481437
   66   1   6     0.1519691589999999925542084611151950     3.0746550790000002351121111132670194    -3.8735153409999996121371168555924669     2.5988121639999999246128936647437513
   67   1   6     0.1519691589999999925542084611151950     3.0734308860000005836354830535128713    -3.0155911230000000955442374106496572    10.7965624130000019675890143844299018
   68   1   6     0.1519691589999999925542084611151950     5.0393985829999996539640960691031069    -3.0156231769999997105458078294759616     9.2942877790000011373194865882396698
   69   1   6     0.1519691589999999925542084611151950     3.0747231679999997844277004332980141     0.4285870749999998730039862948615337     2.5988152320000001971322944882558659
   70   1   6     0.1519691589999999925542084611151950     5.0402378040000002101805876009166241     0.4285549839999999721662504725827603     4.1016825550000000077943695941939950
   71   1   6     0.1519691589999999925542084611151950     5.0393302150000005568131200561765581    -7.3177259679999995256594047532416880     9.2942907009999977674397086957469583
   72   1   6     0.1519691589999999925542084611151950     3.0733625360000003112759259238373488    -7.3176936869999975598943819932173938    10.7965653330000019849421732942573726
   73   1   6     0.1519691589999999925542084611151950    11.1879555259999996508213371271267533    -7.3178281580000001937946763064246625     9.2952137770000007321868906728923321
   74   1   6     0.1519691589999999925542084611151950    13.1534698620000014557263057213276625    -7.3178599240000004044759407406672835    10.7980815059999990523920132545754313
   75   1   6     0.1519691589999999925542084611151950    11.1888636990000005511092240340076387     0.4284526949999999390072957794473041     4.1026070710000004382322913443204015
   76   1   6     0.1519691589999999925542084611151950    13.1548308299999980874872562708333135     0.4284211369999999519109223911073059     2.6003314030000002077258614008314908
   77   1   1     2.0909989460000000249806362262461334     8.1140389620000004100575097254477441    -0.0004583304588224287380061883201421     6.6984478429999994020249687309842557
   78   1   1     2.0909989460000000249806362262461334     8.1140966889999983635561875416897237     3.4437200265411784805280603904975578     6.6984477850000025966892280848696828
   79   1   1     2.0909989460000000249806362262461334     0.0007379069999999998859252503535799     3.4438547305411781884743049886310473     0.0020472169999999996134465440889016
   80   1   1     2.0909989460000000249806362262461334     0.0006801780000000002494170425748621    -0.0003237594588213849803974564434128     0.0020472659999999998428621417190243
   81   1   7    -0.7445643530000000120949721349461470     9.4297232590000010787889550556428730     0.5923909795411805845333219622261822     7.9624298609999977216489241982344538
   82   1   8    -1.2098756939999999460155777342151850     8.1141834019999983240722940536215901     1.7216308215411779691805804759496823     5.9277950940000030399801289604511112
   83   1   8    -1.2098756939999999460155777342151850     8.1140098559999973559797581401653588     5.1658092255411789395225241605658084     7.4691005329999979878152771561872214
   84   1   7    -0.7445643530000000120949721349461470    14.9117345629999977774104991112835705     0.5923021655411807584457051234494429    12.1308655540000014383394955075345933
   85   1   7    -0.7445643530000000120949721349461470     6.7979961629999960948111947800498456     0.5924355195411786789705388400761876     7.9620354219999960321274556918069720
   86   1   7    -0.7445643530000000120949721349461470     1.3147284219999997301187022458179854     0.5925259165411796979938685581146274    12.1288180000000025415829441044479609
   87   1   7    -0.7445643530000000120949721349461470     6.7980327619999991739518918620888144     2.8508706855411776182052108197240159     7.9620343959999990701703609374817461
   88   1   7    -0.7445643530000000120949721349461470     6.7984340599999999454894350492395461     4.0366139895411770055488887010142207     5.4344644110000022152462406666018069
   89   1   7    -0.7445643530000000120949721349461470     1.3164217279999999021811163402162492     4.0367039505411783650856705207843333     1.2660297569999998668066609752713703
   90   1   7    -0.7445643530000000120949721349461470     9.4297598350000022549011191586032510     2.8508261605411782113606022903695703     7.9624306679999978797468429547734559
   91   1   7    -0.7445643530000000120949721349461470     9.4301608639999994210256772930733860     4.0365694435411789697809581412002444     5.4348614839999997982999957457650453
   92   1   7    -0.7445643530000000120949721349461470    14.9134280589999974608872435055673122     4.0364802205411782765054340416099876     1.2680778949999997884390268154675141
   93   1   7    -0.7445643530000000120949721349461470     1.3147650040000002924500677181640640     2.8509611235411775886916529998416081    12.1288170139999973429212332121096551
   94   1   7    -0.7445643530000000120949721349461470     6.7984704930000008360480023839045316     6.2950491605411809103998166392557323     5.4344658179999969505047374696005136
   95   1   7    -0.7445643530000000120949721349461470     1.3164581420000001088510543922893703     6.2951390595411789163904359156731516     1.2660310670000001209700712934136391
   96   1   7    -0.7445643530000000120949721349461470    14.9134647789999998934717950760386884     6.2949153215411790540656511439010501     1.2680775109999999905596723692724481
   97   1   7    -0.7445643530000000120949721349461470     9.4301976060000018975415514432825148     6.2950046615411761052882866351865232     5.4348610409999986714524311537388712
   98   1   7    -0.7445643530000000120949721349461470    14.9117711189999990750720826326869428     2.8507373895411785014175620744936168    12.1308662760000025571116566425189376
   99   1   8    -1.2098756939999999460155777342151850    -0.0011327220000000000690865142871644     5.1659442845411778222342036315239966    12.6217513059999966174018481979146600
  100   1   8    -1.2098756939999999460155777342151850    16.2293271099999998341445461846888065     1.7214971045411788796997143435874023     0.7751439310000000082467863649071660
  101   1   4    -0.1065741179999999954652878386696102    12.7208153840000015577516023768112063     2.9380806795411782417204449302516878    10.4655589960000003912909960490651429
  102   1   3    -0.1475182609999999838734652257699054    13.2767599680000021322712200344540179     1.7215463285411782834444238687865436    10.8879884979999985716858645901083946
  103   1   4    -0.1065741179999999954652878386696102    12.7207765579999989569159879465587437     0.5050298515411755229109758147387765    10.4655584489999977648722051526419818
  104   1   4    -0.1065741179999999954652878386696102    11.6206786359999991731228874414227903     0.5050475835411771807770264786086045     9.6277374709999996582610037876293063
  105   1   3    -0.1475182609999999838734652257699054    11.0647340560000024822784325806424022     1.7215819455411784932863383801304735     9.2053081289999987291139404987916350
  106   1   4    -0.1065741179999999954652878386696102    11.6207174699999971068109516636468470     2.9380984025411782667447369021829218     9.6277380189999988147064868826419115
  107   1   2     0.8460320690000000531938439962686971     9.8839162770000026370098566985689104     1.7216011095411787312770002245088108     8.3021759179999996547394403023645282
  108   1   2     0.8460320690000000531938439962686971    14.4575778860000028203103283885866404     1.7215272205411782380224394728429615    11.7911205729999988278677847119979560
  109   1   2     0.8460320690000000531938439962686971     6.3437375139999980788729772029910237     1.7216606245411785192089837437379174     8.3016438740000015883424566709436476
  110   1   3    -0.1475182609999999838734652257699054     5.1626474710000005430288183561060578     1.7216801555411780366711127499002032     9.2044200109999998460352799156680703
  111   1   4    -0.1065741179999999954652878386696102     4.6065754349999998851217242190614343     2.9382147135411784688585612457245588     9.6266812239999985933991411002352834
  112   1   4    -0.1065741179999999954652878386696102     3.5062246960000003070945240324363112     2.9382327555411782427086109237279743    10.4641701500000010582880349829792976
  113   1   3    -0.1475182609999999838734652257699054     2.9501138519999998699461229989537969     1.7217165145411783555573492776602507    10.8864327860000020820052668568678200
  114   1   4    -0.1065741179999999954652878386696102     3.5061859100000005717845397157361731     0.5051819515411759553558113111648709    10.4641717679999981527316776919178665
  115   1   4    -0.1065741179999999954652878386696102     4.6065366499999997884629010513890535     0.5051639115411795666332750442961697     9.6266828509999999852198016014881432
  116   1   2     0.8460320690000000531938439962686971     1.7690237140000000248818423642660491     1.7217360115411788346051480402820744    11.7892087269999965570832500816322863
  117   1   2     0.8460320690000000531938439962686971     6.3442775380000009377567948831710964     5.1658391005411781193856768368277699     5.0947194879999999628239493176806718
  118   1   3    -0.1475182609999999838734652257699054     5.1634597050000001772218638507183641     5.1658585015411793150974517629947513     4.1915873389999998011035131639800966
  119   1   4    -0.1065741179999999954652878386696102     4.6075148520000004381813596410211176     6.3823929465411772810057300375774503     3.7691585010000001609853370609926060
  120   1   4    -0.1065741179999999954652878386696102     3.5074166430000004446299044502666220     6.3824109105411785947126190876588225     2.9313378389999997786219410045305267
  121   1   3    -0.1475182609999999838734652257699054     2.9514331140000003017576091224327683     5.1658946615411789338168091489933431     2.5089075019999995674879755824804306
  122   1   4    -0.1065741179999999954652878386696102     3.5073781359999998130660969763994217     3.9493602715411784132015782233793288     2.9313361579999992478917647531488910
  123   1   4    -0.1065741179999999954652878386696102     4.6074763330000001460007297282572836     3.9493422335411780821345928416121751     3.7691568189999995475147898105205968
  124   1   2     0.8460320690000000531938439962686971     1.7706148379999999686873479731730185     5.1659139975411783041181479347869754     1.6057758579999998893583779135951772
  125   1   2     0.8460320690000000531938439962686971     9.8844564370000043140862544532865286     5.1657795915411783838067094620782882     5.0952526850000001701346263871528208
  126   1   3    -0.1475182609999999838734652257699054    11.0655464609999985015065249172039330     5.1657602865411789139216125477105379     4.1924765329999997831578184559475631
  127   1   4    -0.1065741179999999954652878386696102    11.6216181780000020751231204485520720     3.9492258455411781703503493190510198     3.7702146739999995439518443163251504
  128   1   4    -0.1065741179999999954652878386696102    12.7219685309999999134333847905509174     3.9492080395411783833026220236206427     2.9327251770000000163918230100534856
  129   1   3    -0.1475182609999999838734652257699054    13.2780793419999998405955921043641865     5.1657244775411772508277863380499184     2.5104627569999999892047526373062283
  130   1   4    -0.1065741179999999954652878386696102    12.7220076360000007298367563635110855     6.3822589625411758618156454758718610     2.9327246869999994416389199614059180